  56  56   0   0
  0.1428571E+03  0.2000000E-08  0.2000000E-08  0.2000000E-08  0.0000000E+00
  1.000000000000000E-004
  CAR 
 neb_test                                
      0.37826434    -17.95174169  301     -3.95925529      1.00000000
    -17.952  0.0000E+00  0.0000E+00
    -17.891  0.0000E+00  0.0000E+00
    -17.830  0.0000E+00  0.0000E+00
    -17.768  0.0000E+00  0.0000E+00
    -17.707  0.0000E+00  0.0000E+00
    -17.646  0.0000E+00  0.0000E+00
    -17.585  0.0000E+00  0.0000E+00
    -17.524  0.0000E+00  0.0000E+00
    -17.463  0.0000E+00  0.0000E+00
    -17.402  0.3634E-16  0.2220E-17
    -17.341  0.1078E-10  0.6589E-12
    -17.280  0.1706E-06  0.1042E-07
    -17.219  0.1532E-03  0.9370E-05
    -17.157  0.8732E-02  0.5429E-03
    -17.096  0.3924E-01  0.2941E-02
    -17.035  0.1674E-01  0.3963E-02
    -16.974  0.6023E-03  0.4000E-02
    -16.913  0.1444E-05  0.4000E-02
    -16.852  0.2009E-09  0.4000E-02
    -16.791  0.1526E-14  0.4000E-02
    -16.730  0.0000E+00  0.4000E-02
    -16.669  0.0000E+00  0.4000E-02
    -16.608  0.0000E+00  0.4000E-02
    -16.546  0.0000E+00  0.4000E-02
    -16.485  0.0000E+00  0.4000E-02
    -16.424  0.0000E+00  0.4000E-02
    -16.363  0.0000E+00  0.4000E-02
    -16.302  0.0000E+00  0.4000E-02
    -16.241  0.0000E+00  0.4000E-02
    -16.180  0.0000E+00  0.4000E-02
    -16.119  0.0000E+00  0.4000E-02
    -16.058  0.0000E+00  0.4000E-02
    -15.997  0.0000E+00  0.4000E-02
    -15.935  0.0000E+00  0.4000E-02
    -15.874  0.0000E+00  0.4000E-02
    -15.813  0.0000E+00  0.4000E-02
    -15.752  0.0000E+00  0.4000E-02
    -15.691  0.0000E+00  0.4000E-02
    -15.630  0.0000E+00  0.4000E-02
    -15.569  0.0000E+00  0.4000E-02
    -15.508  0.0000E+00  0.4000E-02
    -15.447  0.0000E+00  0.4000E-02
    -15.386  0.0000E+00  0.4000E-02
    -15.324  0.0000E+00  0.4000E-02
    -15.263  0.0000E+00  0.4000E-02
    -15.202  0.0000E+00  0.4000E-02
    -15.141  0.0000E+00  0.4000E-02
    -15.080  0.0000E+00  0.4000E-02
    -15.019  0.0000E+00  0.4000E-02
    -14.958  0.0000E+00  0.4000E-02
    -14.897  0.0000E+00  0.4000E-02
    -14.836  0.0000E+00  0.4000E-02
    -14.775  0.0000E+00  0.4000E-02
    -14.713  0.0000E+00  0.4000E-02
    -14.652  0.0000E+00  0.4000E-02
    -14.591  0.0000E+00  0.4000E-02
    -14.530  0.0000E+00  0.4000E-02
    -14.469  0.0000E+00  0.4000E-02
    -14.408  0.0000E+00  0.4000E-02
    -14.347  0.0000E+00  0.4000E-02
    -14.286  0.0000E+00  0.4000E-02
    -14.225  0.0000E+00  0.4000E-02
    -14.164  0.0000E+00  0.4000E-02
    -14.102  0.0000E+00  0.4000E-02
    -14.041  0.0000E+00  0.4000E-02
    -13.980  0.0000E+00  0.4000E-02
    -13.919  0.0000E+00  0.4000E-02
    -13.858  0.0000E+00  0.4000E-02
    -13.797  0.0000E+00  0.4000E-02
    -13.736  0.0000E+00  0.4000E-02
    -13.675  0.0000E+00  0.4000E-02
    -13.614  0.0000E+00  0.4000E-02
    -13.553  0.0000E+00  0.4000E-02
    -13.491  0.0000E+00  0.4000E-02
    -13.430  0.0000E+00  0.4000E-02
    -13.369  0.0000E+00  0.4000E-02
    -13.308  0.0000E+00  0.4000E-02
    -13.247  0.0000E+00  0.4000E-02
    -13.186  0.0000E+00  0.4000E-02
    -13.125  0.0000E+00  0.4000E-02
    -13.064  0.0000E+00  0.4000E-02
    -13.003  0.0000E+00  0.4000E-02
    -12.942  0.0000E+00  0.4000E-02
    -12.880  0.0000E+00  0.4000E-02
    -12.819  0.0000E+00  0.4000E-02
    -12.758  0.0000E+00  0.4000E-02
    -12.697  0.0000E+00  0.4000E-02
    -12.636  0.0000E+00  0.4000E-02
    -12.575  0.0000E+00  0.4000E-02
    -12.514  0.0000E+00  0.4000E-02
    -12.453  0.0000E+00  0.4000E-02
    -12.392  0.0000E+00  0.4000E-02
    -12.331  0.0000E+00  0.4000E-02
    -12.269  0.9113E-13  0.4000E-02
    -12.208  0.4714E-08  0.4000E-02
    -12.147  0.1350E-04  0.4001E-02
    -12.086  0.2320E-02  0.4143E-02
    -12.025  0.2843E-01  0.5880E-02
    -11.964  0.3148E-01  0.7803E-02
    -11.903  0.3198E-02  0.7999E-02
    -11.842  0.2365E-04  0.8000E-02
    -11.781  0.1060E-07  0.8000E-02
    -11.720  0.2645E-12  0.8000E-02
    -11.658  0.0000E+00  0.8000E-02
    -11.597  0.0000E+00  0.8000E-02
    -11.536  0.0000E+00  0.8000E-02
    -11.475  0.0000E+00  0.8000E-02
    -11.414  0.0000E+00  0.8000E-02
    -11.353  0.0000E+00  0.8000E-02
    -11.292  0.0000E+00  0.8000E-02
    -11.231  0.0000E+00  0.8000E-02
    -11.170  0.0000E+00  0.8000E-02
    -11.109  0.0000E+00  0.8000E-02
    -11.047  0.0000E+00  0.8000E-02
    -10.986  0.0000E+00  0.8000E-02
    -10.925  0.0000E+00  0.8000E-02
    -10.864  0.3878E-12  0.8000E-02
    -10.803  0.1523E-07  0.8000E-02
    -10.742  0.3469E-04  0.8002E-02
    -10.681  0.5121E-02  0.8315E-02
    -10.620  0.6261E-01  0.1214E-01
    -10.559  0.9864E-01  0.1817E-01
    -10.498  0.2877E-01  0.1992E-01
    -10.436  0.1228E-02  0.2000E-01
    -10.375  0.4293E-05  0.2000E-01
    -10.314  0.9142E-09  0.2000E-01
    -10.253  0.1074E-13  0.2000E-01
    -10.192  0.0000E+00  0.2000E-01
    -10.131  0.0000E+00  0.2000E-01
    -10.070  0.0000E+00  0.2000E-01
    -10.009  0.0000E+00  0.2000E-01
     -9.948  0.0000E+00  0.2000E-01
     -9.887  0.0000E+00  0.2000E-01
     -9.825  0.0000E+00  0.2000E-01
     -9.764  0.0000E+00  0.2000E-01
     -9.703  0.0000E+00  0.2000E-01
     -9.642  0.1552E-14  0.2000E-01
     -9.581  0.2037E-09  0.2000E-01
     -9.520  0.1466E-05  0.2000E-01
     -9.459  0.6308E-03  0.2004E-01
     -9.398  0.2201E-01  0.2138E-01
     -9.337  0.1270E+00  0.2915E-01
     -9.276  0.1542E+00  0.3857E-01
     -9.214  0.4691E-01  0.4144E-01
     -9.153  0.3649E-01  0.4366E-01
     -9.092  0.5424E-02  0.4400E-01
     -9.031  0.6157E-04  0.4400E-01
     -8.970  0.4328E-07  0.4400E-01
     -8.909  0.1708E-11  0.4400E-01
     -8.848  0.1159E-14  0.4400E-01
     -8.787  0.1779E-09  0.4400E-01
     -8.726  0.1524E-05  0.4400E-01
     -8.665  0.7780E-03  0.4405E-01
     -8.603  0.2701E-01  0.4570E-01
     -8.542  0.8433E-01  0.5085E-01
     -8.481  0.5888E-01  0.5445E-01
     -8.420  0.4397E-01  0.5713E-01
     -8.359  0.3999E-01  0.5958E-01
     -8.298  0.2660E-01  0.6120E-01
     -8.237  0.1311E+00  0.6922E-01
     -8.176  0.1784E+00  0.8012E-01
     -8.115  0.1081E+00  0.8672E-01
     -8.054  0.7389E-01  0.9124E-01
     -7.992  0.1565E+00  0.1008E+00
     -7.931  0.1117E+00  0.1076E+00
     -7.870  0.5630E-01  0.1111E+00
     -7.809  0.3863E-01  0.1134E+00
     -7.748  0.3717E-01  0.1157E+00
     -7.687  0.2099E-01  0.1170E+00
     -7.626  0.5129E-01  0.1201E+00
     -7.565  0.1446E+00  0.1290E+00
     -7.504  0.2379E+00  0.1435E+00
     -7.443  0.1872E+00  0.1549E+00
     -7.381  0.7405E-01  0.1594E+00
     -7.320  0.9751E-02  0.1600E+00
     -7.259  0.3978E-01  0.1625E+00
     -7.198  0.1824E+00  0.1736E+00
     -7.137  0.2417E+00  0.1884E+00
     -7.076  0.2266E+00  0.2022E+00
     -7.015  0.2013E+00  0.2145E+00
     -6.954  0.2725E+00  0.2312E+00
     -6.893  0.1793E+00  0.2421E+00
     -6.832  0.3593E-01  0.2443E+00
     -6.770  0.5230E-01  0.2475E+00
     -6.709  0.1323E+00  0.2556E+00
     -6.648  0.1639E+00  0.2656E+00
     -6.587  0.3909E-01  0.2680E+00
     -6.526  0.4448E-01  0.2707E+00
     -6.465  0.2029E+00  0.2831E+00
     -6.404  0.2224E+00  0.2967E+00
     -6.343  0.1519E+00  0.3060E+00
     -6.282  0.1715E+00  0.3165E+00
     -6.221  0.1282E+00  0.3243E+00
     -6.159  0.3209E+00  0.3439E+00
     -6.098  0.3950E+00  0.3681E+00
     -6.037  0.2738E+00  0.3848E+00
     -5.976  0.1067E+00  0.3913E+00
     -5.915  0.2261E+00  0.4051E+00
     -5.854  0.3817E+00  0.4284E+00
     -5.793  0.2478E+00  0.4436E+00
     -5.732  0.1844E+00  0.4548E+00
     -5.671  0.4193E+00  0.4805E+00
     -5.610  0.4495E+00  0.5079E+00
     -5.548  0.1894E+00  0.5195E+00
     -5.487  0.7726E-01  0.5242E+00
     -5.426  0.9738E-01  0.5302E+00
     -5.365  0.2567E+00  0.5459E+00
     -5.304  0.4422E+00  0.5729E+00
     -5.243  0.3133E+00  0.5920E+00
     -5.182  0.3986E+00  0.6164E+00
     -5.121  0.4792E+00  0.6456E+00
     -5.060  0.3738E+00  0.6685E+00
     -4.999  0.3022E+00  0.6869E+00
     -4.937  0.2732E+00  0.7036E+00
     -4.876  0.2900E+00  0.7214E+00
     -4.815  0.2372E+00  0.7359E+00
     -4.754  0.2505E+00  0.7512E+00
     -4.693  0.2943E+00  0.7691E+00
     -4.632  0.3006E+00  0.7875E+00
     -4.571  0.3443E+00  0.8085E+00
     -4.510  0.4522E+00  0.8362E+00
     -4.449  0.4569E+00  0.8641E+00
     -4.388  0.3872E+00  0.8878E+00
     -4.326  0.2913E+00  0.9056E+00
     -4.265  0.3554E+00  0.9273E+00
     -4.204  0.6048E+00  0.9642E+00
     -4.143  0.6621E+00  0.1005E+01
     -4.082  0.4330E+00  0.1031E+01
     -4.021  0.5021E+00  0.1062E+01
     -3.960  0.8135E+00  0.1112E+01
     -3.899  0.5672E+00  0.1146E+01
     -3.838  0.2582E+00  0.1162E+01
     -3.777  0.1917E+00  0.1174E+01
     -3.715  0.7486E-01  0.1178E+01
     -3.654  0.2794E-01  0.1180E+01
     -3.593  0.2054E-01  0.1181E+01
     -3.532  0.6526E-01  0.1185E+01
     -3.471  0.1054E+00  0.1192E+01
     -3.410  0.6640E-01  0.1196E+01
     -3.349  0.5882E-01  0.1199E+01
     -3.288  0.7700E-01  0.1204E+01
     -3.227  0.7882E-01  0.1209E+01
     -3.166  0.4933E-01  0.1212E+01
     -3.104  0.3094E-02  0.1212E+01
     -3.043  0.1941E-04  0.1212E+01
     -2.982  0.1417E-02  0.1212E+01
     -2.921  0.2382E-01  0.1214E+01
     -2.860  0.3727E-01  0.1216E+01
     -2.799  0.3192E-01  0.1218E+01
     -2.738  0.4229E-01  0.1220E+01
     -2.677  0.6125E-01  0.1224E+01
     -2.616  0.5557E-01  0.1227E+01
     -2.555  0.1458E-01  0.1228E+01
     -2.493  0.3799E-01  0.1231E+01
     -2.432  0.3734E-01  0.1233E+01
     -2.371  0.4032E-01  0.1235E+01
     -2.310  0.8978E-02  0.1236E+01
     -2.249  0.9231E-02  0.1237E+01
     -2.188  0.6902E-01  0.1241E+01
     -2.127  0.1005E+00  0.1247E+01
     -2.066  0.1454E+00  0.1256E+01
     -2.005  0.8179E-01  0.1261E+01
     -1.944  0.4391E-01  0.1263E+01
     -1.882  0.8340E-02  0.1264E+01
     -1.821  0.1388E-03  0.1264E+01
     -1.760  0.1191E-03  0.1264E+01
     -1.699  0.7674E-02  0.1264E+01
     -1.638  0.3858E-01  0.1267E+01
     -1.577  0.1835E-01  0.1268E+01
     -1.516  0.8182E-03  0.1268E+01
     -1.455  0.6417E-02  0.1268E+01
     -1.394  0.5239E-01  0.1272E+01
     -1.333  0.7013E-01  0.1276E+01
     -1.271  0.5166E-01  0.1279E+01
     -1.210  0.5475E-01  0.1282E+01
     -1.149  0.1130E+00  0.1289E+01
     -1.088  0.4352E-01  0.1292E+01
     -1.027  0.2126E-01  0.1293E+01
     -0.966  0.4942E-01  0.1296E+01
     -0.905  0.8365E-01  0.1301E+01
     -0.844  0.8776E-01  0.1307E+01
     -0.783  0.6721E-01  0.1311E+01
     -0.722  0.2732E-01  0.1313E+01
     -0.660  0.1029E+00  0.1319E+01
     -0.599  0.2124E+00  0.1332E+01
     -0.538  0.1208E+00  0.1339E+01
     -0.477  0.3080E-01  0.1341E+01
     -0.416  0.3942E-01  0.1343E+01
     -0.355  0.8732E-02  0.1344E+01
     -0.294  0.1532E-03  0.1344E+01
     -0.233  0.1706E-06  0.1344E+01
     -0.172  0.1078E-10  0.1344E+01
     -0.111  0.3634E-16  0.1344E+01
     -0.049  0.0000E+00  0.1344E+01
      0.012  0.0000E+00  0.1344E+01
      0.073  0.0000E+00  0.1344E+01
      0.134  0.0000E+00  0.1344E+01
      0.195  0.0000E+00  0.1344E+01
      0.256  0.0000E+00  0.1344E+01
      0.317  0.0000E+00  0.1344E+01
      0.378  0.0000E+00  0.1344E+01
