   56   56  500    1
  0.1428571E+03  0.2000000E-08  0.2000000E-08  0.2000000E-08  0.0000000E+00
  1.000000000000000E-004
  CAR 
 neb_test                                
    556      1    336
 
  0.0000000E+00  0.0000000E+00  0.0000000E+00  0.1000000E+01
    1      -17.118560   1.000000
    2      -12.022369   1.000000
    3      -10.624014   1.000000
    4      -10.610764   1.000000
    5      -10.571708   1.000000
    6       -9.375598   1.000000
    7       -9.336223   1.000000
    8       -9.322369   1.000000
    9       -9.318103   1.000000
   10       -9.316329   1.000000
   11       -9.202131   1.000000
   12       -8.579354   1.000000
   13       -8.570523   1.000000
   14       -8.490924   1.000000
   15       -8.402242   1.000000
   16       -8.267528   1.000000
   17       -8.241028   1.000000
   18       -8.232208   1.000000
   19       -8.226110   1.000000
   20       -8.190463   1.000000
   21       -8.166670   1.000000
   22       -8.137271   1.000000
   23       -8.038788   1.000000
   24       -8.031363   1.000000
   25       -8.021783   1.000000
   26       -7.983809   1.000000
   27       -7.966062   1.000000
   28       -7.894252   1.000000
   29       -7.796892   1.000000
   30       -7.662470   1.000000
   31       -7.571986   1.000000
   32       -7.568434   1.000000
   33       -7.559660   1.000000
   34       -7.557652   1.000000
   35       -7.533507   1.000000
   36       -7.498460   1.000000
   37       -7.492898   1.000000
   38       -7.485533   1.000000
   39       -7.460820   1.000000
   40       -7.422585   1.000000
   41       -7.231134   1.000000
   42       -7.228520   1.000000
   43       -7.217969   1.000000
   44       -7.210784   1.000000
   45       -7.165027   1.000000
   46       -7.152988   1.000000
   47       -7.147482   1.000000
   48       -7.142558   1.000000
   49       -7.117429   1.000000
   50       -7.097017   1.000000
   51       -7.082937   1.000000
   52       -7.060535   1.000000
   53       -7.023680   1.000000
   54       -7.009266   1.000000
   55       -6.990262   1.000000
   56       -6.983908   1.000000
   57       -6.981765   1.000000
   58       -6.969156   1.000000
   59       -6.937267   1.000000
   60       -6.930513   1.000000
   61       -6.923461   1.000000
   62       -6.783575   1.000000
   63       -6.738538   1.000000
   64       -6.704974   1.000000
   65       -6.689895   1.000000
   66       -6.685424   1.000000
   67       -6.670253   1.000000
   68       -6.506530   1.000000
   69       -6.499767   1.000000
   70       -6.473702   1.000000
   71       -6.470529   1.000000
   72       -6.452374   1.000000
   73       -6.449724   1.000000
   74       -6.429177   1.000000
   75       -6.408245   1.000000
   76       -6.347759   1.000000
   77       -6.337943   1.000000
   78       -6.331085   1.000000
   79       -6.300682   1.000000
   80       -6.285309   1.000000
   81       -6.215026   1.000000
   82       -6.191435   1.000000
   83       -6.183736   1.000000
   84       -6.178965   1.000000
   85       -6.168697   1.000000
   86       -6.165101   1.000000
   87       -6.159350   1.000000
   88       -6.148539   1.000000
   89       -6.142584   1.000000
   90       -6.130474   1.000000
   91       -6.107804   1.000000
   92       -6.101536   1.000000
   93       -6.095969   1.000000
   94       -6.085302   1.000000
   95       -6.070566   1.000000
   96       -6.067293   1.000000
   97       -6.056919   1.000000
   98       -5.979854   1.000000
   99       -5.932059   1.000000
  100       -5.924627   1.000000
  101       -5.920622   1.000000
  102       -5.917100   1.000000
  103       -5.891735   1.000000
  104       -5.889287   1.000000
  105       -5.879407   1.000000
  106       -5.871553   1.000000
  107       -5.865614   1.000000
  108       -5.862257   1.000000
  109       -5.839154   1.000000
  110       -5.836616   1.000000
  111       -5.820929   1.000000
  112       -5.773548   1.000000
  113       -5.737240   1.000000
  114       -5.711368   1.000000
  115       -5.709991   1.000000
  116       -5.702936   1.000000
  117       -5.694918   1.000000
  118       -5.691853   1.000000
  119       -5.684829   1.000000
  120       -5.677701   1.000000
  121       -5.668504   1.000000
  122       -5.660058   1.000000
  123       -5.652956   1.000000
  124       -5.641574   1.000000
  125       -5.637165   1.000000
  126       -5.628946   1.000000
  127       -5.626623   1.000000
  128       -5.616366   1.000000
  129       -5.602580   1.000000
  130       -5.590209   1.000000
  131       -5.503834   1.000000
  132       -5.474847   1.000000
  133       -5.406536   1.000000
  134       -5.394634   1.000000
  135       -5.371522   1.000000
  136       -5.365083   1.000000
  137       -5.356209   1.000000
  138       -5.353402   1.000000
  139       -5.341253   1.000000
  140       -5.339263   1.000000
  141       -5.327016   1.000000
  142       -5.324384   1.000000
  143       -5.313511   1.000000
  144       -5.308144   1.000000
  145       -5.305411   1.000000
  146       -5.295770   1.000000
  147       -5.267274   1.000000
  148       -5.240680   1.000000
  149       -5.234294   1.000000
  150       -5.210209   1.000000
  151       -5.197875   1.000000
  152       -5.195661   1.000000
  153       -5.188877   1.000000
  154       -5.181145   1.000000
  155       -5.173719   1.000000
  156       -5.171910   1.000000
  157       -5.167827   1.000000
  158       -5.162941   1.000000
  159       -5.150855   1.000000
  160       -5.148740   1.000000
  161       -5.142276   1.000000
  162       -5.123220   1.000000
  163       -5.117445   1.000000
  164       -5.092688   1.000000
  165       -5.079315   1.000000
  166       -5.071837   1.000000
  167       -5.066516   1.000000
  168       -5.056291   1.000000
  169       -5.050955   1.000000
  170       -5.041610   1.000000
  171       -5.036302   1.000000
  172       -4.998648   1.000000
  173       -4.976460   1.000000
  174       -4.970358   1.000000
  175       -4.953469   1.000000
  176       -4.939190   1.000000
  177       -4.930395   1.000000
  178       -4.916592   1.000000
  179       -4.908070   1.000000
  180       -4.897704   1.000000
  181       -4.865320   1.000000
  182       -4.856092   1.000000
  183       -4.850272   1.000000
  184       -4.837686   1.000000
  185       -4.799039   1.000000
  186       -4.775798   1.000000
  187       -4.758640   1.000000
  188       -4.753673   1.000000
  189       -4.747062   1.000000
  190       -4.742564   1.000000
  191       -4.727970   1.000000
  192       -4.702868   1.000000
  193       -4.680570   1.000000
  194       -4.668615   1.000000
  195       -4.665042   1.000000
  196       -4.650414   1.000000
  197       -4.647197   1.000000
  198       -4.620226   1.000000
  199       -4.608936   1.000000
  200       -4.599976   1.000000
  201       -4.574030   1.000000
  202       -4.562437   1.000000
  203       -4.560543   1.000000
  204       -4.553811   1.000000
  205       -4.553205   1.000000
  206       -4.542662   1.000000
  207       -4.534001   1.000000
  208       -4.528067   1.000000
  209       -4.522764   1.000000
  210       -4.516121   1.000000
  211       -4.493993   1.000000
  212       -4.476308   1.000000
  213       -4.469323   1.000000
  214       -4.467347   1.000000
  215       -4.460567   1.000000
  216       -4.450438   1.000000
  217       -4.441778   1.000000
  218       -4.437522   1.000000
  219       -4.431148   1.000000
  220       -4.430110   1.000000
  221       -4.423240   1.000000
  222       -4.415497   1.000000
  223       -4.367412   1.000000
  224       -4.356465   1.000000
  225       -4.349741   1.000000
  226       -4.335061   1.000000
  227       -4.326853   1.000000
  228       -4.312591   1.000000
  229       -4.306972   1.000000
  230       -4.283388   1.000000
  231       -4.270890   1.000000
  232       -4.260656   1.000000
  233       -4.253462   1.000000
  234       -4.237115   1.000000
  235       -4.236117   1.000000
  236       -4.224175   1.000000
  237       -4.219564   1.000000
  238       -4.217190   1.000000
  239       -4.212183   1.000000
  240       -4.209002   1.000000
  241       -4.207575   1.000000
  242       -4.200771   1.000000
  243       -4.199636   1.000000
  244       -4.193922   1.000000
  245       -4.190056   1.000000
  246       -4.187070   1.000000
  247       -4.181603   1.000000
  248       -4.176022   1.000000
  249       -4.165723   1.000000
  250       -4.161788   1.000000
  251       -4.155422   1.000000
  252       -4.149617   1.000000
  253       -4.140163   1.000000
  254       -4.133402   1.000000
  255       -4.121679   0.999998
  256       -4.096115   0.999946
  257       -4.083953   0.999790
  258       -4.077499   0.999588
  259       -4.073959   0.999411
  260       -4.066290   0.998767
  261       -4.064841   0.998589
  262       -4.048505   0.994205
  263       -4.037209   0.986268
  264       -4.030859   0.978579
  265       -4.016320   0.946739
  266       -4.008877   0.919769
  267       -4.002505   0.889389
  268       -3.995069   0.844459
  269       -3.988958   0.799583
  270       -3.985349   0.769760
  271       -3.981514   0.735512
  272       -3.980989   0.730635
  273       -3.977941   0.701431
  274       -3.977705   0.699105
  275       -3.976785   0.689989
  276       -3.973198   0.653346
  277       -3.969605   0.615136
  278       -3.968973   0.608290
  279       -3.965672   0.572014
  280       -3.965401   0.569002
  281       -3.964950   0.563986
  282       -3.961812   0.528830
  283       -3.939859   0.291640
  284       -3.936600   0.260830
  285       -3.933883   0.236492
  286       -3.930661   0.209320
  287       -3.928335   0.190911
  288       -3.881112   0.013545
  289       -3.866411   0.004319
  290       -3.841900   0.000451
  291       -3.834239   0.000203
  292       -3.829632   0.000123
  293       -3.821944   0.000051
  294       -3.786104   0.000000
  295       -3.722861   0.000000
  296       -3.573461   0.000000
  297       -3.505065   0.000000
  298       -3.500349   0.000000
  299       -3.450322   0.000000
  300       -3.348703   0.000000
  301       -3.332399   0.000000
  302       -3.236295   0.000000
  303       -3.234963   0.000000
  304       -2.910844   0.000000
  305       -2.793683   0.000000
  306       -2.698696   0.000000
  307       -2.657350   0.000000
  308       -2.508670   0.000000
  309       -2.409757   0.000000
  310       -2.203600   0.000000
  311       -2.187420   0.000000
  312       -2.110562   0.000000
  313       -2.108525   0.000000
  314       -2.088043   0.000000
  315       -2.058623   0.000000
  316       -1.983542   0.000000
  317       -1.657425   0.000000
  318       -1.407650   0.000000
  319       -1.368992   0.000000
  320       -1.294126   0.000000
  321       -1.198493   0.000000
  322       -1.172456   0.000000
  323       -1.163843   0.000000
  324       -1.009527   0.000000
  325       -0.922516   0.000000
  326       -0.912589   0.000000
  327       -0.851543   0.000000
  328       -0.805029   0.000000
  329       -0.672265   0.000000
  330       -0.660918   0.000000
  331       -0.637420   0.000000
  332       -0.626409   0.000000
  333       -0.615607   0.000000
  334       -0.591956   0.000000
  335       -0.578099   0.000000
  336       -0.454918   0.000000
