 vasp.5.4.4.18Apr17-6-g9f103f2a35 (build Oct 13 2018 23:10:52) complex          
  
 executed on           IFC91_ompi date 2020.07.23  05:22:20
 running on  120 total cores
 each image running on   24 cores
 distrk:  each k-point on   24 cores,    1 groups
 distr:  one band on NCORES_PER_BAND=   1 cores,   24 groups


--------------------------------------------------------------------------------------------------------


 INCAR:
 POTCAR:   PAW_PBE Ni 06Sep2000                   
 POTCAR:    PAW_PBE S 17Jan2003                   

 ----------------------------------------------------------------------------- 
|                                                                             |
|           W    W    AA    RRRRR   N    N  II  N    N   GGGG   !!!           |
|           W    W   A  A   R    R  NN   N  II  NN   N  G    G  !!!           |
|           W    W  A    A  R    R  N N  N  II  N N  N  G       !!!           |
|           W WW W  AAAAAA  RRRRR   N  N N  II  N  N N  G  GGG   !            |
|           WW  WW  A    A  R   R   N   NN  II  N   NN  G    G                |
|           W    W  A    A  R    R  N    N  II  N    N   GGGG   !!!           |
|                                                                             |
|      For optimal performance we recommend to set                            |
|        NCORE= 4 - approx SQRT( number of cores)                             |
|      NCORE specifies how many cores store one orbital (NPAR=cpu/NCORE).     |
|      This setting can  greatly improve the performance of VASP for DFT.     |
|      The default,   NCORE=1            might be grossly inefficient         |
|      on modern multi-core architectures or massively parallel machines.     |
|      Do your own testing !!!!                                               |
|      Unfortunately you need to use the default for GW and RPA calculations. |
|      (for HF NCORE is supported but not extensively tested yet)             |
|                                                                             |
 ----------------------------------------------------------------------------- 

 POTCAR:   PAW_PBE Ni 06Sep2000                   
  local pseudopotential read in
  partial core-charges read in
  atomic valenz-charges read in
  non local Contribution for L=           2  read in
    real space projection operators read in
  non local Contribution for L=           2  read in
    real space projection operators read in
  non local Contribution for L=           0  read in
    real space projection operators read in
  non local Contribution for L=           0  read in
    real space projection operators read in
  non local Contribution for L=           1  read in
    real space projection operators read in
  non local Contribution for L=           1  read in
    real space projection operators read in
    PAW grid and wavefunctions read in
 
   number of l-projection  operators is LMAX  =           6
   number of lm-projection operators is LMMAX =          18
 
 POTCAR:    PAW_PBE S 17Jan2003                   
  local pseudopotential read in
  partial core-charges read in
  atomic valenz-charges read in
  non local Contribution for L=           0  read in
    real space projection operators read in
  non local Contribution for L=           0  read in
    real space projection operators read in
  non local Contribution for L=           1  read in
    real space projection operators read in
  non local Contribution for L=           1  read in
    real space projection operators read in
    PAW grid and wavefunctions read in
 
   number of l-projection  operators is LMAX  =           4
   number of lm-projection operators is LMMAX =           8
 

 ----------------------------------------------------------------------------- 
|                                                                             |
|  ADVICE TO THIS USER RUNNING 'VASP/VAMP'   (HEAR YOUR MASTER'S VOICE ...):  |
|                                                                             |
|      You have a (more or less) 'large supercell' and for larger cells       |
|      it might be more efficient to use real space projection operators      |
|      So try LREAL= Auto  in the INCAR   file.                               |
|      Mind: If you want to do a very accurate calculations keep the          |
|      reciprocal projection scheme          (i.e. LREAL=.FALSE.)             |
|                                                                             |
 ----------------------------------------------------------------------------- 

 PAW_PBE Ni 06Sep2000                   :
 energy of atom  1       EATOM=-1077.9025
 kinetic energy error for atom=    0.0101 (will be added to EATOM!!)
  PAW_PBE S 17Jan2003                   :
 energy of atom  2       EATOM= -276.8230
 kinetic energy error for atom=    0.0046 (will be added to EATOM!!)
 
 
 POSCAR: Ni   S                                  
  positions in direct lattice
  No initial velocities read in
 exchange correlation table for  LEXCH =        8
   RHO(1)=    0.500       N(1)  =     2000
   RHO(2)=  100.500       N(2)  =     4000

 VTST: version 3.2, (02/03/18)

 CHAIN: initializing optimizer
 
 OPT: Using Quick-Min optimizer
 OPT: QM, Init
 OPT: QM, MAXMOVE       0.200000
 OPT: QM, TIMESTEP      0.100000
 
 CHAIN: Read ICHAIN            0
 CHAIN: Running the NEB
 NEB:          SPRING     -5.000000
 NEB:          LCLIMB      T
 NEB:     LTANGENTOLD      F
 NEB:           LDNEB      F
 NEB:        LDNEBORG      F
 NEB:        LNEBCELL      F
 NEB:          EFIRST      0.000000
 NEB:           ELAST      0.000000
 
 POSCAR: Ni   S                                  
  positions in direct lattice
  No initial velocities read in
 
 POSCAR: Ni   S                                  
  positions in direct lattice
  No initial velocities read in
 


--------------------------------------------------------------------------------------------------------


 ion  position               nearest neighbor table
   1  0.350  0.596  0.410-  19 2.40  10 2.41   8 2.43  16 2.45   3 2.51  17 2.52  24 2.52   2 2.53

   2  0.452  0.663  0.377-  19 2.41   5 2.42   4 2.45  16 2.45  20 2.51   6 2.51   3 2.53   1 2.53

   3  0.412  0.662  0.497-   5 2.41  10 2.41   8 2.44   4 2.45  11 2.50   1 2.51  12 2.52   2 2.53

   4  0.513  0.723  0.464-   5 2.29   3 2.45   2 2.45  12 2.45   6 2.45   7 2.45
   5  0.515  0.609  0.464-   4 2.29  28 2.35  12 2.41   3 2.41   7 2.41   6 2.41   2 2.42  23 2.47
                            14 2.47  19 2.47  10 2.49  13 2.49
   6  0.577  0.665  0.378-  23 2.41   5 2.41  35 2.45   4 2.45   7 2.51   2 2.51  32 2.52  20 2.52

   7  0.616  0.665  0.497-  14 2.41   5 2.41   4 2.45  33 2.45  32 2.50   6 2.51  12 2.53  15 2.53

   8  0.316  0.593  0.527-  10 2.30   1 2.43   3 2.44   9 2.45  24 2.45  11 2.48
   9  0.347  0.490  0.585-  56 2.37   8 2.45  10 2.45  27 2.49  24 2.52  42 2.52  11 2.54  25 2.58
                            39 2.61
  10  0.415  0.542  0.497-   8 2.30  28 2.36  24 2.40  11 2.40   3 2.41   1 2.41   9 2.45  27 2.47
                            13 2.48  26 2.48  19 2.49   5 2.49
  11  0.413  0.597  0.604-  13 2.40  10 2.40  40 2.47   8 2.48  12 2.49   3 2.50  39 2.54   9 2.54

  12  0.514  0.663  0.571-   5 2.41  13 2.41  40 2.44   4 2.45  11 2.49  15 2.51   3 2.52   7 2.53

  13  0.515  0.543  0.570-  40 2.30  28 2.36  41 2.40  11 2.40  12 2.41  15 2.42  39 2.46  27 2.46
                            10 2.48  31 2.48  14 2.49   5 2.49
  14  0.616  0.545  0.497-  33 2.30  28 2.36  15 2.40  37 2.41   7 2.41  32 2.41  34 2.41   5 2.47
                            23 2.48  31 2.48  30 2.48  13 2.49
  15  0.616  0.599  0.604-  14 2.40  13 2.42  40 2.43  33 2.45  12 2.51  41 2.52  34 2.52   7 2.53

  16  0.393  0.594  0.295-  19 2.30  18 2.45   2 2.45   1 2.45  17 2.45  20 2.45
  17  0.352  0.489  0.344-  26 2.41  19 2.41  50 2.44  16 2.45  18 2.51  47 2.51   1 2.52  24 2.53

  18  0.454  0.491  0.270-  19 2.41  21 2.41  48 2.45  16 2.45  20 2.51  17 2.51  22 2.52  47 2.52

  19  0.454  0.543  0.379-  16 2.30  28 2.36   1 2.40  18 2.41   2 2.41  17 2.41  20 2.41   5 2.47
                            26 2.48  23 2.48  21 2.48  10 2.49
  20  0.515  0.598  0.291-  23 2.41  19 2.41  35 2.45  16 2.45   2 2.51  22 2.51  18 2.51   6 2.52

  21  0.517  0.438  0.359-  48 2.30  28 2.36  52 2.40  49 2.41  18 2.41  22 2.41  47 2.41  30 2.47
                            26 2.47  23 2.48  19 2.48  29 2.49
  22  0.579  0.492  0.270-  23 2.41  21 2.41  35 2.44  48 2.45  49 2.50  20 2.51  36 2.51  18 2.52

  23  0.578  0.544  0.379-  35 2.30  28 2.36  36 2.41  22 2.41   6 2.41  32 2.41  20 2.41   5 2.47
                            30 2.48  14 2.48  21 2.48  19 2.48
  24  0.313  0.488  0.464-  10 2.40  26 2.41  50 2.45   8 2.45   9 2.52  25 2.52   1 2.52  17 2.53

  25  0.354  0.381  0.517-  26 2.40  27 2.41  50 2.46  42 2.47  51 2.50  43 2.50  24 2.52   9 2.58

  26  0.417  0.437  0.431-  50 2.30  28 2.36  25 2.40  24 2.41  17 2.41  51 2.41  47 2.41  21 2.47
                            29 2.48  19 2.48  10 2.48  27 2.49
  27  0.455  0.438  0.550-  42 2.33  28 2.35  25 2.41  44 2.42  43 2.43  13 2.46  10 2.47  29 2.48
                            31 2.49  26 2.49   9 2.49  39 2.51
  28  0.516  0.491  0.464-  27 2.35   5 2.35  31 2.36  13 2.36  10 2.36  26 2.36  29 2.36  14 2.36
                            30 2.36  21 2.36  19 2.36  23 2.36
  29  0.517  0.373  0.464-  55 2.30  28 2.36  43 2.40  51 2.40  45 2.40  53 2.42  52 2.42  26 2.48
                            31 2.48  27 2.48  21 2.49  30 2.49
  30  0.617  0.439  0.431-  54 2.30  28 2.36  53 2.40  49 2.41  37 2.41  38 2.41  36 2.41  21 2.47
                            31 2.47  23 2.48  14 2.48  29 2.49
  31  0.579  0.439  0.549-  46 2.30  28 2.36  34 2.41  38 2.41  41 2.41  45 2.41  44 2.41  30 2.47
                            29 2.48  14 2.48  13 2.48  27 2.49
  32  0.680  0.600  0.411-  23 2.41  14 2.41  35 2.45  33 2.45   7 2.50  37 2.52  36 2.52   6 2.52

  33  0.713  0.597  0.529-  14 2.30  15 2.45  34 2.45  37 2.45  32 2.45   7 2.45
  34  0.681  0.492  0.584-  31 2.41  14 2.41  46 2.45  33 2.45  37 2.51  38 2.51  41 2.52  15 2.52

  35  0.638  0.597  0.296-  23 2.30  36 2.44  22 2.44   6 2.45  20 2.45  32 2.45
  36  0.681  0.493  0.344-  23 2.41  30 2.41  35 2.44  54 2.45  49 2.50  22 2.51  32 2.52  37 2.52

  37  0.720  0.493  0.464-  30 2.41  14 2.41  54 2.45  33 2.45  34 2.51  32 2.52  36 2.52  38 2.52

  38  0.682  0.385  0.517-  31 2.41  30 2.41  46 2.45  54 2.45  34 2.51  37 2.52  53 2.52  45 2.52

  39  0.453  0.492  0.663-  56 1.97  40 2.44  13 2.46  27 2.51  41 2.53  42 2.53  11 2.54  44 2.60
                             9 2.61
  40  0.516  0.596  0.673-  13 2.30  15 2.43  39 2.44  12 2.44  41 2.46  11 2.47
  41  0.579  0.491  0.658-  13 2.40  31 2.41  46 2.46  40 2.46  15 2.52  34 2.52  39 2.53  44 2.53

  42  0.394  0.383  0.633-  56 1.94  27 2.33  43 2.46  25 2.47  44 2.47   9 2.52  39 2.53
  43  0.455  0.316  0.550-  29 2.40  27 2.43  42 2.46  55 2.47  25 2.50  51 2.51  44 2.51  45 2.52

  44  0.518  0.382  0.637-  31 2.41  27 2.42  46 2.45  42 2.47  45 2.50  43 2.51  41 2.53  39 2.60

  45  0.581  0.318  0.550-  29 2.40  31 2.41  55 2.45  46 2.46  44 2.50  43 2.52  38 2.52  53 2.52

  46  0.640  0.388  0.632-  31 2.30  34 2.45  38 2.45  44 2.45  41 2.46  45 2.46
  47  0.416  0.383  0.323-  26 2.41  21 2.41  48 2.45  50 2.45  17 2.51  52 2.52  18 2.52  51 2.53

  48  0.517  0.387  0.255-  21 2.30  18 2.45  47 2.45  52 2.45  22 2.45  49 2.45
  49  0.620  0.386  0.323-  30 2.41  21 2.41  54 2.45  48 2.45  22 2.50  36 2.50  53 2.52  52 2.52

  50  0.320  0.385  0.399-  26 2.30  17 2.44  47 2.45  24 2.45  25 2.46  51 2.46
  51  0.417  0.316  0.431-  29 2.40  26 2.41  55 2.45  50 2.46  25 2.50  43 2.51  52 2.52  47 2.53

  52  0.519  0.318  0.356-  21 2.40  29 2.42  55 2.44  48 2.45  53 2.51  47 2.52  51 2.52  49 2.52

  53  0.620  0.319  0.430-  30 2.40  29 2.42  55 2.43  54 2.45  52 2.51  38 2.52  49 2.52  45 2.52

  54  0.716  0.389  0.400-  30 2.30  38 2.45  53 2.45  37 2.45  36 2.45  49 2.45
  55  0.520  0.258  0.462-  29 2.30  53 2.43  52 2.44  45 2.45  51 2.45  43 2.47
  56  0.368  0.453  0.696-  42 1.94  39 1.97   9 2.37
 

IMPORTANT INFORMATION: All symmetrisations will be switched off!
NOSYMM: (Re-)initialisation of all symmetry stuff for point group C_1.

 
 
 KPOINTS: 4x2x1                                   

Automatic generation of k-mesh.
Space group operators:
 irot       det(A)        alpha          n_x          n_y          n_z        tau_x        tau_y        tau_z
    1     1.000000     0.000000     1.000000     0.000000     0.000000     0.000000     0.000000     0.000000
 
 Subroutine IBZKPT returns following result:
 ===========================================
 
 Found      1 irreducible k-points:
 
 Following reciprocal coordinates:
            Coordinates               Weight
  0.000000  0.000000  0.000000      1.000000
 
 Following cartesian coordinates:
            Coordinates               Weight
  0.000000  0.000000  0.000000      1.000000
 


--------------------------------------------------------------------------------------------------------




 Dimension of arrays:
   k-points           NKPTS =      1   k-points in BZ     NKDIM =      1   number of bands    NBANDS=    336
   number of dos      NEDOS =    301   number of ions     NIONS =     56
   non local maximal  LDIM  =      6   non local SUM 2l+1 LMDIM =     18
   total plane-waves  NPLWV = 941192
   max r-space proj   IRMAX =      1   max aug-charges    IRDMAX=   4013
   dimension x,y,z NGX =    98 NGY =   98 NGZ =   98
   dimension x,y,z NGXF=   196 NGYF=  196 NGZF=  196
   support grid    NGXF=   196 NGYF=  196 NGZF=  196
   ions per type =              55   1
   NGX,Y,Z   is equivalent  to a cutoff of   8.15,  8.15,  8.15 a.u.
   NGXF,Y,Z  is equivalent  to a cutoff of  16.29, 16.29, 16.29 a.u.

 SYSTEM =  neb_test                                
 POSCAR =  Ni   S                                  

 Startparameter for this run:
   NWRITE =      1    write-flag & timer
   PREC   = normal    normal or accurate (medium, high low for compatibility)
   ISTART =      0    job   : 0-new  1-cont  2-samecut
   ICHARG =      2    charge: 1-file 2-atom 10-const
   ISPIN  =      1    spin polarized calculation?
   LNONCOLLINEAR =      F non collinear calculations
   LSORBIT =      F    spin-orbit coupling
   INIWAV =      1    electr: 0-lowe 1-rand  2-diag
   LASPH  =      F    aspherical Exc in radial PAW
   METAGGA=      F    non-selfconsistent MetaGGA calc.

 Electronic Relaxation 1
   ENCUT  =  400.0 eV  29.40 Ry    5.42 a.u.  32.61 32.61 32.61*2*pi/ulx,y,z
   ENINI  =  400.0     initial cutoff
   ENAUG  =  544.6 eV  augmentation charge cutoff
   NELM   =    100;   NELMIN=  8; NELMDL= -5     # of ELM steps 
   EDIFF  = 0.1E-05   stopping-criterion for ELM
   LREAL  =      F    real-space projection
   NLSPLINE    = F    spline interpolate recip. space projectors
   LCOMPAT=      F    compatible to vasp.4.4
   GGA_COMPAT  = T    GGA compatible to vasp.4.4-vasp.4.6
   LMAXPAW     = -100 max onsite density
   LMAXMIX     =    2 max onsite mixed and CHGCAR
   VOSKOWN=      0    Vosko Wilk Nusair interpolation
   ROPT   =    0.00000   0.00000
 Ionic relaxation
   EDIFFG = -.1E+00   stopping-criterion for IOM
   NSW    =    500    number of steps for IOM
   NBLOCK =      1;   KBLOCK =    500    inner block; outer block 
   IBRION =      3    ionic relax: 0-MD 1-quasi-New 2-CG
   NFREE  =      0    steps in history (QN), initial steepest desc. (CG)
   ISIF   =      2    stress and relaxation
   IWAVPR =     11    prediction:  0-non 1-charg 2-wave 3-comb
   ISYM   =      0    0-nonsym 1-usesym 2-fastsym
   LCORR  =      T    Harris-Foulkes like correction to forces

   POTIM  = 0.0000    time-step for ionic-motion
   TEIN   =    0.0    initial temperature
   TEBEG  =    0.0;   TEEND  =   0.0 temperature during run
   SMASS  =  -3.00    Nose mass-parameter (am)
   estimated Nose-frequenzy (Omega)   =  0.10E-29 period in steps =  0.00 mass=  -0.914E-26a.u.
   SCALEE = 1.0000    scale energy and forces
   NPACO  =    256;   APACO  = 16.0  distance and # of slots for P.C.
   PSTRESS=    0.0 pullay stress

  Mass of Ions in am
   POMASS =  58.69 32.07
  Ionic Valenz
   ZVAL   =  10.00  6.00
  Atomic Wigner-Seitz radii
   RWIGS  =  -1.00 -1.00
  virtual crystal weights 
   VCA    =   1.00  1.00
   NELECT =     556.0000    total number of electrons
   NUPDOWN=      -1.0000    fix difference up-down

 DOS related values:
   EMIN   =  10.00;   EMAX   =-10.00  energy-range for DOS
   EFERMI =   0.00
   ISMEAR =     0;   SIGMA  =   0.05  broadening in eV -4-tet -1-fermi 0-gaus

 Electronic relaxation 2 (details)
   IALGO  =     68    algorithm
   LDIAG  =      T    sub-space diagonalisation (order eigenvalues)
   LSUBROT=      F    optimize rotation matrix (better conditioning)
   TURBO    =      0    0=normal 1=particle mesh
   IRESTART =      0    0=no restart 2=restart with 2 vectors
   NREBOOT  =      0    no. of reboots
   NMIN     =      0    reboot dimension
   EREF     =   0.00    reference energy to select bands
   IMIX   =      4    mixing-type and parameters
     AMIX     =   0.40;   BMIX     =  1.00
     AMIX_MAG =   1.60;   BMIX_MAG =  1.00
     AMIN     =   0.10
     WC   =   100.;   INIMIX=   1;  MIXPRE=   1;  MAXMIX= -45

 Intra band minimization:
   WEIMIN = 0.0010     energy-eigenvalue tresh-hold
   EBREAK =  0.74E-09  absolut break condition
   DEPER  =   0.30     relativ break condition  

   TIME   =   0.40     timestep for ELM

  volume/ion in A,a.u.               =     142.86       964.05
  Fermi-wavevector in a.u.,A,eV,Ry     =   0.673085  1.271946  6.164026  0.453043
  Thomas-Fermi vector in A             =   1.749399
 
 Write flags
   LWAVE        =      F    write WAVECAR
   LDOWNSAMPLE  =      F    k-point downsampling of WAVECAR
   LCHARG       =      F    write CHGCAR
   LVTOT        =      F    write LOCPOT, total local potential
   LVHAR        =      F    write LOCPOT, Hartree potential only
   LELF         =      F    write electronic localiz. function (ELF)
   LORBIT       =      0    0 simple, 1 ext, 2 COOP (PROOUT), +10 PAW based schemes


 Dipole corrections
   LMONO  =      F    monopole corrections only (constant potential shift)
   LDIPOL =      F    correct potential (dipole corrections)
   IDIPOL =      0    1-x, 2-y, 3-z, 4-all directions 
   EPSILON=  1.0000000 bulk dielectric constant

 Exchange correlation treatment:
   GGA     =    --    GGA type
   LEXCH   =     8    internal setting for exchange type
   VOSKOWN=      0    Vosko Wilk Nusair interpolation
   LHFCALC =     F    Hartree Fock is set to
   LHFONE  =     F    Hartree Fock one center treatment
   AEXX    =    0.0000 exact exchange contribution

 Linear response parameters
   LEPSILON=     F    determine dielectric tensor
   LRPA    =     F    only Hartree local field effects (RPA)
   LNABLA  =     F    use nabla operator in PAW spheres
   LVEL    =     F    velocity operator in full k-point grid
   LINTERFAST=   F  fast interpolation
   KINTER  =     0    interpolate to denser k-point grid
   CSHIFT  =0.1000    complex shift for real part using Kramers Kronig
   OMEGAMAX=  -1.0    maximum frequency
   DEG_THRESHOLD= 0.2000000E-02 threshold for treating states as degnerate
   RTIME   =   -0.100 relaxation time in fs
  (WPLASMAI=    0.000 imaginary part of plasma frequency in eV, 0.658/RTIME)
   DFIELD  = 0.0000000 0.0000000 0.0000000 field for delta impulse in time
 
 Orbital magnetization related:
   ORBITALMAG=     F  switch on orbital magnetization
   LCHIMAG   =     F  perturbation theory with respect to B field
   DQ        =  0.001000  dq finite difference perturbation B field
   LLRAUG    =     F  two centre corrections for induced B field



--------------------------------------------------------------------------------------------------------


 quickmin algorithm: (dynamic with friction)
 charge density and potential will be updated during run
 non-spin polarized calculation
 RMM-DIIS sequential band-by-band and
  variant of blocked Davidson during initial phase
 perform sub-space diagonalisation
    before iterative eigenvector-optimisation
 modified Broyden-mixing scheme, WC =      100.0
 initial mixing is a Kerker type mixing with AMIX =  0.4000 and BMIX =      1.0000
 Hartree-type preconditioning will be used
 using additional bands           58
 reciprocal scheme for non local part
 use partial core corrections
 calculate Harris-corrections to forces 
   (improved forces if not selfconsistent)
 use gradient corrections 
 use of overlap-Matrix (Vanderbilt PP)
 Gauss-broadening in eV      SIGMA  =   0.05


--------------------------------------------------------------------------------------------------------


  energy-cutoff  :      400.00
  volume of cell :     8000.00
      direct lattice vectors                 reciprocal lattice vectors
    20.000000000  0.000000000  0.000000000     0.050000000  0.000000000  0.000000000
     0.000000000 20.000000000  0.000000000     0.000000000  0.050000000  0.000000000
     0.000000000  0.000000000 20.000000000     0.000000000  0.000000000  0.050000000

  length of vectors
    20.000000000 20.000000000 20.000000000     0.050000000  0.050000000  0.050000000


 
 k-points in units of 2pi/SCALE and weight: 4x2x1                                   
   0.00000000  0.00000000  0.00000000       1.000
 
 k-points in reciprocal lattice and weights: 4x2x1                                   
   0.00000000  0.00000000  0.00000000       1.000
 
 position of ions in fractional coordinates (direct lattice) 
   0.35038401  0.59578271  0.41043786
   0.45174326  0.66338558  0.37698417
   0.41223680  0.66234005  0.49691068
   0.51322244  0.72314475  0.46426189
   0.51482066  0.60850213  0.46411998
   0.57724022  0.66502003  0.37758790
   0.61616955  0.66531691  0.49688474
   0.31622284  0.59312659  0.52701937
   0.34741844  0.49013130  0.58517446
   0.41482962  0.54183877  0.49704268
   0.41341108  0.59731421  0.60359508
   0.51403115  0.66341506  0.57111356
   0.51502700  0.54285879  0.57011619
   0.61565722  0.54481643  0.49691686
   0.61649721  0.59870885  0.60434987
   0.39269359  0.59366476  0.29548395
   0.35159836  0.48884352  0.34386520
   0.45358707  0.49057435  0.27044066
   0.45361711  0.54295700  0.37885090
   0.51515286  0.59810399  0.29085284
   0.51693924  0.43830736  0.35868564
   0.57932839  0.49221861  0.27049355
   0.57756710  0.54449013  0.37903385
   0.31266861  0.48796367  0.46420389
   0.35375014  0.38096666  0.51685282
   0.41655876  0.43686437  0.43100738
   0.45467635  0.43757955  0.54960851
   0.51595683  0.49076360  0.46440792
   0.51712654  0.37282984  0.46445316
   0.61693343  0.43936943  0.43139990
   0.57903744  0.43861882  0.54916282
   0.67970696  0.60003689  0.41092653
   0.71282665  0.59701744  0.52891342
   0.68105698  0.49228779  0.58368213
   0.63752271  0.59661906  0.29588568
   0.68098423  0.49327139  0.34443787
   0.71955344  0.49329854  0.46417802
   0.68231980  0.38549126  0.51732529
   0.45250005  0.49183034  0.66274121
   0.51602035  0.59554021  0.67260939
   0.57887050  0.49114484  0.65758540
   0.39425629  0.38332537  0.63324984
   0.45531621  0.31591762  0.55011921
   0.51783877  0.38231943  0.63668906
   0.58108580  0.31798423  0.55012635
   0.64004471  0.38779494  0.63214208
   0.41577429  0.38272235  0.32326539
   0.51746378  0.38736396  0.25540973
   0.61965213  0.38616203  0.32335681
   0.31954673  0.38451926  0.39893971
   0.41670694  0.31631306  0.43066005
   0.51857396  0.31829440  0.35641196
   0.62008444  0.31931136  0.43013221
   0.71567039  0.38938640  0.39964722
   0.51996571  0.25795133  0.46225396
   0.36828994  0.45323032  0.69560482
 
 position of ions in cartesian coordinates  (Angst):
   7.00768011 11.91565419  8.20875719
   9.03486520 13.26771159  7.53968345
   8.24473607 13.24680097  9.93821360
  10.26444888 14.46289504  9.28523787
  10.29641319 12.17004257  9.28239963
  11.54480431 13.30040057  7.55175796
  12.32339104 13.30633823  9.93769474
   6.32445690 11.86253182 10.54038750
   6.94836873  9.80262598 11.70348911
   8.29659235 10.83677547  9.94085353
   8.26822153 11.94628422 12.07190169
  10.28062297 13.26830128 11.42227123
  10.30053992 10.85717578 11.40232377
  12.31314432 10.89632851  9.93833718
  12.32994427 11.97417708 12.08699731
   7.85387179 11.87329511  5.90967900
   7.03196715  9.77687036  6.87730398
   9.07174144  9.81148698  5.40881320
   9.07234214 10.85913995  7.57701805
  10.30305719 11.96207980  5.81705676
  10.33878483  8.76614720  7.17371282
  11.58656789  9.84437225  5.40987109
  11.55134197 10.88980261  7.58067694
   6.25337226  9.75927331  9.28407779
   7.07500285  7.61933326 10.33705640
   8.33117517  8.73728736  8.62014754
   9.09352706  8.75159104 10.99217020
  10.31913667  9.81527200  9.28815832
  10.34253071  7.45659689  9.28906323
  12.33866866  8.78738863  8.62799799
  11.58074876  8.77237642 10.98325640
  13.59413910 12.00073790  8.21853057
  14.25653292 11.94034879 10.57826836
  13.62113968  9.84575576 11.67364252
  12.75045424 11.93238116  5.91771359
  13.61968456  9.86542776  6.88875736
  14.39106875  9.86597080  9.28356039
  13.64639598  7.70982511 10.34650573
   9.05000096  9.83660690 13.25482425
  10.32040708 11.91080419 13.45218784
  11.57741003  9.82289686 13.15170796
   7.88512587  7.66650732 12.66499675
   9.10632428  6.31835248 11.00238429
  10.35677549  7.64638857 12.73378126
  11.62171592  6.35968450 11.00252706
  12.80089420  7.75589879 12.64284163
   8.31548584  7.65444704  6.46530770
  10.34927564  7.74727914  5.10819469
  12.39304252  7.72324064  6.46713623
   6.39093461  7.69038519  7.97879411
   8.33413880  6.32626118  8.61320092
  10.37147916  6.36588808  7.12823928
  12.40168873  6.38622727  8.60264416
  14.31340785  7.78772798  7.99294434
  10.39931425  5.15902650  9.24507925
   7.36579876  9.06460639 13.91209631
 


--------------------------------------------------------------------------------------------------------


 k-point  1 :   0.0000 0.0000 0.0000  plane waves:  145165

 maximum and minimum number of plane-waves per node :    145165   145165

 maximum number of plane-waves:    145165
 maximum index in each direction: 
   IXMAX=   32   IYMAX=   32   IZMAX=   32
   IXMIN=  -32   IYMIN=  -32   IZMIN=  -32


 serial   3D FFT for wavefunctions
 parallel 3D FFT for charge:
    minimum data exchange during FFTs selected (reduces bandwidth)


 total amount of memory used by VASP MPI-rank0   308125. kBytes
=======================================================================

   base      :      30000. kBytes
   nonl-proj :     171888. kBytes
   fftplans  :      15318. kBytes
   grid      :      57304. kBytes
   one-center:        870. kBytes
   wavefun   :      32745. kBytes
 
     INWAV:  cpu time    0.0000: real time    0.0000
 Broyden mixing: mesh for mixing (old mesh)
   NGX = 65   NGY = 65   NGZ = 65
  (NGX  =196   NGY  =196   NGZ  =196)
  gives a total of 274625 points

 initial charge density was supplied:
 charge density of overlapping atoms calculated
 number of electron     556.0000000 magnetization 
 keeping initial charge density in first step


--------------------------------------------------------------------------------------------------------


 Maximum index for augmentation-charges          287 (set IRDMAX)


--------------------------------------------------------------------------------------------------------


 First call to EWALD:  gamma=   0.089
 Maximum number of real-space cells 3x 3x 3
 Maximum number of reciprocal cells 3x 3x 3

    FEWALD:  cpu time    0.0032: real time    0.0035


--------------------------------------- Iteration      1(   1)  ---------------------------------------


    POTLOK:  cpu time    0.2725: real time    0.2753
    SETDIJ:  cpu time    0.0086: real time    0.0086
     EDDAV:  cpu time   53.1142: real time   53.2451
       DOS:  cpu time    0.0006: real time    0.0007
    --------------------------------------------
      LOOP:  cpu time   53.3958: real time   53.5297

 eigenvalue-minimisations  :   672
 total energy-change (2. order) : 0.2853828E+04  (-0.1621660E+05)
 number of electron     556.0000000 magnetization 
 augmentation part      556.0000000 magnetization 

 Free energy of the ion-electron system (eV)
  ---------------------------------------------------
  alpha Z        PSCENC =       387.12086559
  Ewald energy   TEWEN  =    181057.82412088
  -Hartree energ DENC   =   -235831.35151256
  -exchange      EXHF   =         0.00000000
  -V(xc)+E(xc)   XCENC  =      1717.63789129
  PAW double counting   =     47983.58147063   -51655.55533713
  entropy T*S    EENTRO =        -0.06623857
  eigenvalues    EBANDS =      -366.26556581
  atomic energy  EATOM  =     59560.90262231
  Solvation  Ediel_sol  =         0.00000000
  ---------------------------------------------------
  free energy    TOTEN  =      2853.82831663 eV

  energy without entropy =     2853.89455520  energy(sigma->0) =     2853.86143592


--------------------------------------------------------------------------------------------------------




--------------------------------------- Iteration      1(   2)  ---------------------------------------


     EDDAV:  cpu time   56.0802: real time   56.2305
       DOS:  cpu time    0.0003: real time    0.0003
    --------------------------------------------
      LOOP:  cpu time   56.0805: real time   56.2307

 eigenvalue-minimisations  :   720
 total energy-change (2. order) :-0.2969186E+04  (-0.2900414E+04)
 number of electron     556.0000000 magnetization 
 augmentation part      556.0000000 magnetization 

 Free energy of the ion-electron system (eV)
  ---------------------------------------------------
  alpha Z        PSCENC =       387.12086559
  Ewald energy   TEWEN  =    181057.82412088
  -Hartree energ DENC   =   -235831.35151256
  -exchange      EXHF   =         0.00000000
  -V(xc)+E(xc)   XCENC  =      1717.63789129
  PAW double counting   =     47983.58147063   -51655.55533713
  entropy T*S    EENTRO =        -0.14424953
  eigenvalues    EBANDS =     -3335.37311403
  atomic energy  EATOM  =     59560.90262231
  Solvation  Ediel_sol  =         0.00000000
  ---------------------------------------------------
  free energy    TOTEN  =      -115.35724254 eV

  energy without entropy =     -115.21299301  energy(sigma->0) =     -115.28511777


--------------------------------------------------------------------------------------------------------




--------------------------------------- Iteration      1(   3)  ---------------------------------------


     EDDAV:  cpu time   62.0230: real time   62.1738
       DOS:  cpu time    0.0002: real time    0.0002
    --------------------------------------------
      LOOP:  cpu time   62.0232: real time   62.1741

 eigenvalue-minimisations  :   816
 total energy-change (2. order) :-0.1822246E+03  (-0.1697565E+03)
 number of electron     556.0000000 magnetization 
 augmentation part      556.0000000 magnetization 

 Free energy of the ion-electron system (eV)
  ---------------------------------------------------
  alpha Z        PSCENC =       387.12086559
  Ewald energy   TEWEN  =    181057.82412088
  -Hartree energ DENC   =   -235831.35151256
  -exchange      EXHF   =         0.00000000
  -V(xc)+E(xc)   XCENC  =      1717.63789129
  PAW double counting   =     47983.58147063   -51655.55533713
  entropy T*S    EENTRO =        -0.31008800
  eigenvalues    EBANDS =     -3517.43188128
  atomic energy  EATOM  =     59560.90262231
  Solvation  Ediel_sol  =         0.00000000
  ---------------------------------------------------
  free energy    TOTEN  =      -297.58184826 eV

  energy without entropy =     -297.27176026  energy(sigma->0) =     -297.42680426


--------------------------------------------------------------------------------------------------------




--------------------------------------- Iteration      1(   4)  ---------------------------------------


     EDDAV:  cpu time   56.1348: real time   56.2710
       DOS:  cpu time    0.0003: real time    0.0003
    --------------------------------------------
      LOOP:  cpu time   56.1350: real time   56.2713

 eigenvalue-minimisations  :   720
 total energy-change (2. order) :-0.6532752E+01  (-0.6390485E+01)
 number of electron     556.0000000 magnetization 
 augmentation part      556.0000000 magnetization 

 Free energy of the ion-electron system (eV)
  ---------------------------------------------------
  alpha Z        PSCENC =       387.12086559
  Ewald energy   TEWEN  =    181057.82412088
  -Hartree energ DENC   =   -235831.35151256
  -exchange      EXHF   =         0.00000000
  -V(xc)+E(xc)   XCENC  =      1717.63789129
  PAW double counting   =     47983.58147063   -51655.55533713
  entropy T*S    EENTRO =        -0.31355072
  eigenvalues    EBANDS =     -3523.96117064
  atomic energy  EATOM  =     59560.90262231
  Solvation  Ediel_sol  =         0.00000000
  ---------------------------------------------------
  free energy    TOTEN  =      -304.11460034 eV

  energy without entropy =     -303.80104962  energy(sigma->0) =     -303.95782498


--------------------------------------------------------------------------------------------------------




--------------------------------------- Iteration      1(   5)  ---------------------------------------


     EDDAV:  cpu time   60.5347: real time   60.6816
       DOS:  cpu time    0.0002: real time    0.0002
    CHARGE:  cpu time    0.4632: real time    0.4643
    MIXING:  cpu time    0.0106: real time    0.0107
    --------------------------------------------
      LOOP:  cpu time   61.0088: real time   61.1568

 eigenvalue-minimisations  :   792
 total energy-change (2. order) :-0.1806623E+00  (-0.1797316E+00)
 number of electron     555.9999936 magnetization 
 augmentation part      316.5566489 magnetization 

 Broyden mixing:
  rms(total) = 0.53751E+01    rms(broyden)= 0.53741E+01
  rms(prec ) = 0.59996E+01
  weight for this iteration     100.00

 Free energy of the ion-electron system (eV)
  ---------------------------------------------------
  alpha Z        PSCENC =       387.12086559
  Ewald energy   TEWEN  =    181057.82412088
  -Hartree energ DENC   =   -235831.35151256
  -exchange      EXHF   =         0.00000000
  -V(xc)+E(xc)   XCENC  =      1717.63789129
  PAW double counting   =     47983.58147063   -51655.55533713
  entropy T*S    EENTRO =        -0.31372127
  eigenvalues    EBANDS =     -3524.14166238
  atomic energy  EATOM  =     59560.90262231
  Solvation  Ediel_sol  =         0.00000000
  ---------------------------------------------------
  free energy    TOTEN  =      -304.29526263 eV

  energy without entropy =     -303.98154136  energy(sigma->0) =     -304.13840200


--------------------------------------------------------------------------------------------------------




--------------------------------------- Iteration      1(   6)  ---------------------------------------


    POTLOK:  cpu time    0.2437: real time    0.2479
    SETDIJ:  cpu time    0.0083: real time    0.0084
    EDDIAG:  cpu time    1.4659: real time    1.4696
  RMM-DIIS:  cpu time   42.2558: real time   42.3554
    ORTHCH:  cpu time    0.3973: real time    0.3982
       DOS:  cpu time    0.0003: real time    0.0003
    CHARGE:  cpu time    0.4380: real time    0.4391
    MIXING:  cpu time    0.0122: real time    0.0123
    --------------------------------------------
      LOOP:  cpu time   44.8217: real time   44.9312

 eigenvalue-minimisations  :   672
 total energy-change (2. order) :-0.1550246E+03  (-0.7810553E+02)
 number of electron     555.9999941 magnetization 
 augmentation part      343.5225345 magnetization 

 Broyden mixing:
  rms(total) = 0.13674E+02    rms(broyden)= 0.13673E+02
  rms(prec ) = 0.16212E+02
  weight for this iteration     100.00

 eigenvalues of (default mixing * dielectric matrix)
  average eigenvalue GAMMA=   0.2077
  0.2077

 Free energy of the ion-electron system (eV)
  ---------------------------------------------------
  alpha Z        PSCENC =       387.12086559
  Ewald energy   TEWEN  =    181057.82412088
  -Hartree energ DENC   =   -235207.08548934
  -exchange      EXHF   =         0.00000000
  -V(xc)+E(xc)   XCENC  =      1661.13083383
  PAW double counting   =     47706.59720028   -51192.57111539
  entropy T*S    EENTRO =        -0.11796424
  eigenvalues    EBANDS =     -4433.12091602
  atomic energy  EATOM  =     59560.90262231
  Solvation  Ediel_sol  =         0.00000000
  ---------------------------------------------------
  free energy    TOTEN  =      -459.31984209 eV

  energy without entropy =     -459.20187785  energy(sigma->0) =     -459.26085997


--------------------------------------------------------------------------------------------------------




--------------------------------------- Iteration      1(   7)  ---------------------------------------


    POTLOK:  cpu time    0.2422: real time    0.2463
    SETDIJ:  cpu time    0.0063: real time    0.0063
    EDDIAG:  cpu time    1.4626: real time    1.4664
  RMM-DIIS:  cpu time   42.2532: real time   42.3533
    ORTHCH:  cpu time    0.3969: real time    0.3979
       DOS:  cpu time    0.0004: real time    0.0004
    CHARGE:  cpu time    0.4644: real time    0.4655
    MIXING:  cpu time    0.0091: real time    0.0091
    --------------------------------------------
      LOOP:  cpu time   44.8351: real time   44.9452

 eigenvalue-minimisations  :   673
 total energy-change (2. order) : 0.1151468E+03  (-0.4010303E+02)
 number of electron     555.9999886 magnetization 
 augmentation part      351.9619430 magnetization 

 Broyden mixing:
  rms(total) = 0.75162E+01    rms(broyden)= 0.75143E+01
  rms(prec ) = 0.86886E+01
  weight for this iteration     100.00

 eigenvalues of (default mixing * dielectric matrix)
  average eigenvalue GAMMA=   0.2808
  0.3926  0.1691

 Free energy of the ion-electron system (eV)
  ---------------------------------------------------
  alpha Z        PSCENC =       387.12086559
  Ewald energy   TEWEN  =    181057.82412088
  -Hartree energ DENC   =   -234991.67072031
  -exchange      EXHF   =         0.00000000
  -V(xc)+E(xc)   XCENC  =      1665.23495393
  PAW double counting   =     47895.07867734   -51425.51662322
  entropy T*S    EENTRO =        -0.25943201
  eigenvalues    EBANDS =     -4492.88749353
  atomic energy  EATOM  =     59560.90262231
  Solvation  Ediel_sol  =         0.00000000
  ---------------------------------------------------
  free energy    TOTEN  =      -344.17302902 eV

  energy without entropy =     -343.91359701  energy(sigma->0) =     -344.04331301


--------------------------------------------------------------------------------------------------------




--------------------------------------- Iteration      1(   8)  ---------------------------------------


    POTLOK:  cpu time    0.2392: real time    0.2439
    SETDIJ:  cpu time    0.0063: real time    0.0063
    EDDIAG:  cpu time    1.4635: real time    1.4670
  RMM-DIIS:  cpu time   42.2363: real time   42.3358
    ORTHCH:  cpu time    0.4322: real time    0.4333
       DOS:  cpu time    0.0004: real time    0.0004
    CHARGE:  cpu time    0.4520: real time    0.4530
    MIXING:  cpu time    0.0094: real time    0.0094
    --------------------------------------------
      LOOP:  cpu time   44.8391: real time   44.9491

 eigenvalue-minimisations  :   674
 total energy-change (2. order) : 0.3170315E+02  (-0.1917271E+02)
 number of electron     555.9999873 magnetization 
 augmentation part      346.8330576 magnetization 

 Broyden mixing:
  rms(total) = 0.83776E+01    rms(broyden)= 0.83763E+01
  rms(prec ) = 0.10380E+02
  weight for this iteration     100.00

 eigenvalues of (default mixing * dielectric matrix)
  average eigenvalue GAMMA=   0.2746
  0.5165  0.1536  0.1536

 Free energy of the ion-electron system (eV)
  ---------------------------------------------------
  alpha Z        PSCENC =       387.12086559
  Ewald energy   TEWEN  =    181057.82412088
  -Hartree energ DENC   =   -235265.48318935
  -exchange      EXHF   =         0.00000000
  -V(xc)+E(xc)   XCENC  =      1672.15374624
  PAW double counting   =     48407.33154351   -52019.95075967
  entropy T*S    EENTRO =        -0.11482687
  eigenvalues    EBANDS =     -4112.25399871
  atomic energy  EATOM  =     59560.90262231
  Solvation  Ediel_sol  =         0.00000000
  ---------------------------------------------------
  free energy    TOTEN  =      -312.46987607 eV

  energy without entropy =     -312.35504920  energy(sigma->0) =     -312.41246264


--------------------------------------------------------------------------------------------------------




--------------------------------------- Iteration      1(   9)  ---------------------------------------


    POTLOK:  cpu time    0.2380: real time    0.2425
    SETDIJ:  cpu time    0.0063: real time    0.0063
    EDDIAG:  cpu time    1.4785: real time    1.4824
  RMM-DIIS:  cpu time   42.2726: real time   42.3798
    ORTHCH:  cpu time    0.4150: real time    0.4160
       DOS:  cpu time    0.0003: real time    0.0003
    CHARGE:  cpu time    0.4340: real time    0.4350
    MIXING:  cpu time    0.0097: real time    0.0097
    --------------------------------------------
      LOOP:  cpu time   44.8543: real time   44.9720

 eigenvalue-minimisations  :   674
 total energy-change (2. order) :-0.4736612E+00  (-0.6118432E+01)
 number of electron     556.0000099 magnetization 
 augmentation part      343.2652074 magnetization 

 Broyden mixing:
  rms(total) = 0.11057E+02    rms(broyden)= 0.11057E+02
  rms(prec ) = 0.13084E+02
  weight for this iteration     100.00

 eigenvalues of (default mixing * dielectric matrix)
  average eigenvalue GAMMA=   0.2605
  0.6511  0.1514  0.1514  0.0884

 Free energy of the ion-electron system (eV)
  ---------------------------------------------------
  alpha Z        PSCENC =       387.12086559
  Ewald energy   TEWEN  =    181057.82412088
  -Hartree energ DENC   =   -235413.83948196
  -exchange      EXHF   =         0.00000000
  -V(xc)+E(xc)   XCENC  =      1674.83118784
  PAW double counting   =     48681.90176273   -52334.70775861
  entropy T*S    EENTRO =        -0.05183913
  eigenvalues    EBANDS =     -3926.92501696
  atomic energy  EATOM  =     59560.90262231
  Solvation  Ediel_sol  =         0.00000000
  ---------------------------------------------------
  free energy    TOTEN  =      -312.94353730 eV

  energy without entropy =     -312.89169817  energy(sigma->0) =     -312.91761773


--------------------------------------------------------------------------------------------------------




--------------------------------------- Iteration      1(  10)  ---------------------------------------


    POTLOK:  cpu time    0.2374: real time    0.2422
    SETDIJ:  cpu time    0.0065: real time    0.0065
    EDDIAG:  cpu time    1.4766: real time    1.4806
  RMM-DIIS:  cpu time   42.2563: real time   42.3574
    ORTHCH:  cpu time    0.4142: real time    0.4152
       DOS:  cpu time    0.0005: real time    0.0005
    CHARGE:  cpu time    0.4515: real time    0.4526
    MIXING:  cpu time    0.0101: real time    0.0101
    --------------------------------------------
      LOOP:  cpu time   44.8532: real time   44.9652

 eigenvalue-minimisations  :   674
 total energy-change (2. order) : 0.1989577E+02  (-0.5740443E+01)
 number of electron     555.9999898 magnetization 
 augmentation part      341.1021595 magnetization 

 Broyden mixing:
  rms(total) = 0.79208E+01    rms(broyden)= 0.79199E+01
  rms(prec ) = 0.94817E+01
  weight for this iteration     100.00

 eigenvalues of (default mixing * dielectric matrix)
  average eigenvalue GAMMA=   0.2348
  0.6947  0.1525  0.1525  0.1058  0.0686

 Free energy of the ion-electron system (eV)
  ---------------------------------------------------
  alpha Z        PSCENC =       387.12086559
  Ewald energy   TEWEN  =    181057.82412088
  -Hartree energ DENC   =   -235531.73788478
  -exchange      EXHF   =         0.00000000
  -V(xc)+E(xc)   XCENC  =      1676.84717353
  PAW double counting   =     48916.56095687   -52604.27168583
  entropy T*S    EENTRO =        -0.17509776
  eigenvalues    EBANDS =     -3756.11883703
  atomic energy  EATOM  =     59560.90262231
  Solvation  Ediel_sol  =         0.00000000
  ---------------------------------------------------
  free energy    TOTEN  =      -293.04776621 eV

  energy without entropy =     -292.87266845  energy(sigma->0) =     -292.96021733


--------------------------------------------------------------------------------------------------------




--------------------------------------- Iteration      1(  11)  ---------------------------------------


    POTLOK:  cpu time    0.2383: real time    0.2426
    SETDIJ:  cpu time    0.0063: real time    0.0063
    EDDIAG:  cpu time    1.4832: real time    1.4868
  RMM-DIIS:  cpu time   42.3222: real time   42.4219
    ORTHCH:  cpu time    0.4208: real time    0.4218
       DOS:  cpu time    0.0004: real time    0.0004
    CHARGE:  cpu time    0.4565: real time    0.4576
    MIXING:  cpu time    0.0109: real time    0.0110
    --------------------------------------------
      LOOP:  cpu time   44.9385: real time   45.0484

 eigenvalue-minimisations  :   676
 total energy-change (2. order) : 0.1947098E+02  (-0.2085584E+01)
 number of electron     555.9999988 magnetization 
 augmentation part      341.5026491 magnetization 

 Broyden mixing:
  rms(total) = 0.52040E+01    rms(broyden)= 0.52028E+01
  rms(prec ) = 0.62784E+01
  weight for this iteration     100.00

 eigenvalues of (default mixing * dielectric matrix)
  average eigenvalue GAMMA=   0.2068
  0.6970  0.1620  0.1620  0.0838  0.0838  0.0523

 Free energy of the ion-electron system (eV)
  ---------------------------------------------------
  alpha Z        PSCENC =       387.12086559
  Ewald energy   TEWEN  =    181057.82412088
  -Hartree energ DENC   =   -235573.31061708
  -exchange      EXHF   =         0.00000000
  -V(xc)+E(xc)   XCENC  =      1677.29566979
  PAW double counting   =     49013.70072728   -52713.90665582
  entropy T*S    EENTRO =        -0.20525733
  eigenvalues    EBANDS =     -3682.99826466
  atomic energy  EATOM  =     59560.90262231
  Solvation  Ediel_sol  =         0.00000000
  ---------------------------------------------------
  free energy    TOTEN  =      -273.57678903 eV

  energy without entropy =     -273.37153170  energy(sigma->0) =     -273.47416036


--------------------------------------------------------------------------------------------------------




--------------------------------------- Iteration      1(  12)  ---------------------------------------


    POTLOK:  cpu time    0.2394: real time    0.2433
    SETDIJ:  cpu time    0.0064: real time    0.0064
    EDDIAG:  cpu time    1.4854: real time    1.4890
  RMM-DIIS:  cpu time   42.3253: real time   42.4255
    ORTHCH:  cpu time    0.4174: real time    0.4184
       DOS:  cpu time    0.0003: real time    0.0003
    CHARGE:  cpu time    0.4526: real time    0.4536
    MIXING:  cpu time    0.0111: real time    0.0112
    --------------------------------------------
      LOOP:  cpu time   44.9379: real time   45.0477

 eigenvalue-minimisations  :   676
 total energy-change (2. order) : 0.5366170E+01  (-0.4293972E+00)
 number of electron     555.9999897 magnetization 
 augmentation part      341.5824916 magnetization 

 Broyden mixing:
  rms(total) = 0.46284E+01    rms(broyden)= 0.46273E+01
  rms(prec ) = 0.55918E+01
  weight for this iteration     100.00

 eigenvalues of (default mixing * dielectric matrix)
  average eigenvalue GAMMA=   0.1901
  0.6989  0.1768  0.1768  0.0866  0.0866  0.0523  0.0523

 Free energy of the ion-electron system (eV)
  ---------------------------------------------------
  alpha Z        PSCENC =       387.12086559
  Ewald energy   TEWEN  =    181057.82412088
  -Hartree energ DENC   =   -235585.95839214
  -exchange      EXHF   =         0.00000000
  -V(xc)+E(xc)   XCENC  =      1677.38997338
  PAW double counting   =     49057.94103173   -52761.61819030
  entropy T*S    EENTRO =        -0.25467310
  eigenvalues    EBANDS =     -3661.55797713
  atomic energy  EATOM  =     59560.90262231
  Solvation  Ediel_sol  =         0.00000000
  ---------------------------------------------------
  free energy    TOTEN  =      -268.21061877 eV

  energy without entropy =     -267.95594567  energy(sigma->0) =     -268.08328222


--------------------------------------------------------------------------------------------------------




--------------------------------------- Iteration      1(  13)  ---------------------------------------


    POTLOK:  cpu time    0.2378: real time    0.2416
    SETDIJ:  cpu time    0.0064: real time    0.0064
    EDDIAG:  cpu time    1.4807: real time    1.4845
  RMM-DIIS:  cpu time   42.3591: real time   42.4598
    ORTHCH:  cpu time    0.4168: real time    0.4178
       DOS:  cpu time    0.0003: real time    0.0003
    CHARGE:  cpu time    0.4580: real time    0.4591
    MIXING:  cpu time    0.0117: real time    0.0118
    --------------------------------------------
      LOOP:  cpu time   44.9707: real time   45.0813

 eigenvalue-minimisations  :   676
 total energy-change (2. order) : 0.2678095E+01  (-0.3004226E+00)
 number of electron     555.9999906 magnetization 
 augmentation part      341.5506459 magnetization 

 Broyden mixing:
  rms(total) = 0.41294E+01    rms(broyden)= 0.41282E+01
  rms(prec ) = 0.49144E+01
  weight for this iteration     100.00

 eigenvalues of (default mixing * dielectric matrix)
  average eigenvalue GAMMA=   0.1924
  0.7087  0.3053  0.1409  0.1065  0.1065  0.0689  0.0689  0.0330

 Free energy of the ion-electron system (eV)
  ---------------------------------------------------
  alpha Z        PSCENC =       387.12086559
  Ewald energy   TEWEN  =    181057.82412088
  -Hartree energ DENC   =   -235600.54329586
  -exchange      EXHF   =         0.00000000
  -V(xc)+E(xc)   XCENC  =      1677.48897324
  PAW double counting   =     49109.55016249   -52816.72599198
  entropy T*S    EENTRO =        -0.25889843
  eigenvalues    EBANDS =     -3640.89108213
  atomic energy  EATOM  =     59560.90262231
  Solvation  Ediel_sol  =         0.00000000
  ---------------------------------------------------
  free energy    TOTEN  =      -265.53252388 eV

  energy without entropy =     -265.27362545  energy(sigma->0) =     -265.40307467


--------------------------------------------------------------------------------------------------------




--------------------------------------- Iteration      1(  14)  ---------------------------------------


    POTLOK:  cpu time    0.2379: real time    0.2417
    SETDIJ:  cpu time    0.0063: real time    0.0064
    EDDIAG:  cpu time    1.4814: real time    1.4854
  RMM-DIIS:  cpu time   42.3547: real time   42.4545
    ORTHCH:  cpu time    0.4162: real time    0.4172
       DOS:  cpu time    0.0004: real time    0.0004
    CHARGE:  cpu time    0.4536: real time    0.4547
    MIXING:  cpu time    0.0120: real time    0.0120
    --------------------------------------------
      LOOP:  cpu time   44.9625: real time   45.0722

 eigenvalue-minimisations  :   676
 total energy-change (2. order) :-0.3118133E+00  (-0.4904087E+00)
 number of electron     555.9999975 magnetization 
 augmentation part      340.8969645 magnetization 

 Broyden mixing:
  rms(total) = 0.45095E+01    rms(broyden)= 0.45082E+01
  rms(prec ) = 0.52369E+01
  weight for this iteration     100.00

 eigenvalues of (default mixing * dielectric matrix)
  average eigenvalue GAMMA=   0.2023
  0.7190  0.4822  0.1297  0.1297  0.1180  0.1040  0.0510  0.0510  0.0361

 Free energy of the ion-electron system (eV)
  ---------------------------------------------------
  alpha Z        PSCENC =       387.12086559
  Ewald energy   TEWEN  =    181057.82412088
  -Hartree energ DENC   =   -235636.98014538
  -exchange      EXHF   =         0.00000000
  -V(xc)+E(xc)   XCENC  =      1677.77619980
  PAW double counting   =     49226.05381486   -52941.37362922
  entropy T*S    EENTRO =        -0.21738951
  eigenvalues    EBANDS =     -3596.95079652
  atomic energy  EATOM  =     59560.90262231
  Solvation  Ediel_sol  =         0.00000000
  ---------------------------------------------------
  free energy    TOTEN  =      -265.84433719 eV

  energy without entropy =     -265.62694768  energy(sigma->0) =     -265.73564244


--------------------------------------------------------------------------------------------------------




--------------------------------------- Iteration      1(  15)  ---------------------------------------


    POTLOK:  cpu time    0.2385: real time    0.2426
    SETDIJ:  cpu time    0.0063: real time    0.0063
    EDDIAG:  cpu time    1.4843: real time    1.4879
  RMM-DIIS:  cpu time   42.3506: real time   42.4508
    ORTHCH:  cpu time    0.4178: real time    0.4188
       DOS:  cpu time    0.0003: real time    0.0003
    CHARGE:  cpu time    0.4568: real time    0.4579
    MIXING:  cpu time    0.0136: real time    0.0136
    --------------------------------------------
      LOOP:  cpu time   44.9683: real time   45.0782

 eigenvalue-minimisations  :   675
 total energy-change (2. order) : 0.1504447E+01  (-0.4545686E+00)
 number of electron     555.9999916 magnetization 
 augmentation part      340.0978982 magnetization 

 Broyden mixing:
  rms(total) = 0.40242E+01    rms(broyden)= 0.40227E+01
  rms(prec ) = 0.48493E+01
  weight for this iteration     100.00

 eigenvalues of (default mixing * dielectric matrix)
  average eigenvalue GAMMA=   0.2068
  0.7644  0.5778  0.1484  0.1484  0.1145  0.1145  0.0650  0.0507  0.0507  0.0336

 Free energy of the ion-electron system (eV)
  ---------------------------------------------------
  alpha Z        PSCENC =       387.12086559
  Ewald energy   TEWEN  =    181057.82412088
  -Hartree energ DENC   =   -235687.07562970
  -exchange      EXHF   =         0.00000000
  -V(xc)+E(xc)   XCENC  =      1678.07133183
  PAW double counting   =     49393.32890747   -53118.84518202
  entropy T*S    EENTRO =        -0.23252744
  eigenvalues    EBANDS =     -3535.43439901
  atomic energy  EATOM  =     59560.90262231
  Solvation  Ediel_sol  =         0.00000000
  ---------------------------------------------------
  free energy    TOTEN  =      -264.33989009 eV

  energy without entropy =     -264.10736264  energy(sigma->0) =     -264.22362636


--------------------------------------------------------------------------------------------------------




--------------------------------------- Iteration      1(  16)  ---------------------------------------


    POTLOK:  cpu time    0.2399: real time    0.2438
    SETDIJ:  cpu time    0.0063: real time    0.0063
    EDDIAG:  cpu time    1.4821: real time    1.4859
  RMM-DIIS:  cpu time   42.3705: real time   42.4704
    ORTHCH:  cpu time    0.4166: real time    0.4175
       DOS:  cpu time    0.0003: real time    0.0003
    CHARGE:  cpu time    0.4541: real time    0.4552
    MIXING:  cpu time    0.0137: real time    0.0137
    --------------------------------------------
      LOOP:  cpu time   44.9836: real time   45.0933

 eigenvalue-minimisations  :   676
 total energy-change (2. order) : 0.2146443E+01  (-0.3878370E+00)
 number of electron     555.9999939 magnetization 
 augmentation part      339.7915393 magnetization 

 Broyden mixing:
  rms(total) = 0.32899E+01    rms(broyden)= 0.32883E+01
  rms(prec ) = 0.39747E+01
  weight for this iteration     100.00

 eigenvalues of (default mixing * dielectric matrix)
  average eigenvalue GAMMA=   0.2044
  0.8184  0.5755  0.1709  0.1709  0.1252  0.1252  0.0670  0.0670  0.0525  0.0413
  0.0346

 Free energy of the ion-electron system (eV)
  ---------------------------------------------------
  alpha Z        PSCENC =       387.12086559
  Ewald energy   TEWEN  =    181057.82412088
  -Hartree energ DENC   =   -235724.20168256
  -exchange      EXHF   =         0.00000000
  -V(xc)+E(xc)   XCENC  =      1678.28929858
  PAW double counting   =     49538.29877299   -53271.98890148
  entropy T*S    EENTRO =        -0.24561401
  eigenvalues    EBANDS =     -3488.19292930
  atomic energy  EATOM  =     59560.90262231
  Solvation  Ediel_sol  =         0.00000000
  ---------------------------------------------------
  free energy    TOTEN  =      -262.19344700 eV

  energy without entropy =     -261.94783299  energy(sigma->0) =     -262.07063999


--------------------------------------------------------------------------------------------------------




--------------------------------------- Iteration      1(  17)  ---------------------------------------


    POTLOK:  cpu time    0.2426: real time    0.2468
    SETDIJ:  cpu time    0.0064: real time    0.0064
    EDDIAG:  cpu time    1.4826: real time    1.4864
  RMM-DIIS:  cpu time   42.3526: real time   42.4524
    ORTHCH:  cpu time    0.4158: real time    0.4167
       DOS:  cpu time    0.0004: real time    0.0004
    CHARGE:  cpu time    0.4592: real time    0.4603
    MIXING:  cpu time    0.0142: real time    0.0143
    --------------------------------------------
      LOOP:  cpu time   44.9737: real time   45.0836

 eigenvalue-minimisations  :   676
 total energy-change (2. order) : 0.1320698E+01  (-0.2206859E+00)
 number of electron     555.9999937 magnetization 
 augmentation part      339.7128563 magnetization 

 Broyden mixing:
  rms(total) = 0.28908E+01    rms(broyden)= 0.28894E+01
  rms(prec ) = 0.35563E+01
  weight for this iteration     100.00

 eigenvalues of (default mixing * dielectric matrix)
  average eigenvalue GAMMA=   0.1998
  0.8619  0.5376  0.2249  0.2023  0.1197  0.1197  0.0793  0.0793  0.0508  0.0508
  0.0360  0.0360

 Free energy of the ion-electron system (eV)
  ---------------------------------------------------
  alpha Z        PSCENC =       387.12086559
  Ewald energy   TEWEN  =    181057.82412088
  -Hartree energ DENC   =   -235742.34000334
  -exchange      EXHF   =         0.00000000
  -V(xc)+E(xc)   XCENC  =      1678.33305033
  PAW double counting   =     49621.25532996   -53358.87258087
  entropy T*S    EENTRO =        -0.25034208
  eigenvalues    EBANDS =     -3464.84581142
  atomic energy  EATOM  =     59560.90262231
  Solvation  Ediel_sol  =         0.00000000
  ---------------------------------------------------
  free energy    TOTEN  =      -260.87274864 eV

  energy without entropy =     -260.62240656  energy(sigma->0) =     -260.74757760


--------------------------------------------------------------------------------------------------------




--------------------------------------- Iteration      1(  18)  ---------------------------------------


    POTLOK:  cpu time    0.2398: real time    0.2445
    SETDIJ:  cpu time    0.0063: real time    0.0064
    EDDIAG:  cpu time    1.4788: real time    1.4826
  RMM-DIIS:  cpu time   42.3010: real time   42.4008
    ORTHCH:  cpu time    0.4155: real time    0.4165
       DOS:  cpu time    0.0003: real time    0.0003
    CHARGE:  cpu time    0.4535: real time    0.4546
    MIXING:  cpu time    0.0144: real time    0.0144
    --------------------------------------------
      LOOP:  cpu time   44.9096: real time   45.0202

 eigenvalue-minimisations  :   676
 total energy-change (2. order) : 0.1406507E+00  (-0.1202386E+00)
 number of electron     555.9999936 magnetization 
 augmentation part      339.8514891 magnetization 

 Broyden mixing:
  rms(total) = 0.35819E+01    rms(broyden)= 0.35811E+01
  rms(prec ) = 0.43655E+01
  weight for this iteration     100.00

 eigenvalues of (default mixing * dielectric matrix)
  average eigenvalue GAMMA=   0.2023
  0.9077  0.4654  0.4654  0.1553  0.1213  0.1213  0.0895  0.0895  0.0550  0.0550
  0.0402  0.0350  0.0292

 Free energy of the ion-electron system (eV)
  ---------------------------------------------------
  alpha Z        PSCENC =       387.12086559
  Ewald energy   TEWEN  =    181057.82412088
  -Hartree energ DENC   =   -235752.82251485
  -exchange      EXHF   =         0.00000000
  -V(xc)+E(xc)   XCENC  =      1678.29456990
  PAW double counting   =     49678.85003677   -53418.43824606
  entropy T*S    EENTRO =        -0.25269696
  eigenvalues    EBANDS =     -3452.21085556
  atomic energy  EATOM  =     59560.90262231
  Solvation  Ediel_sol  =         0.00000000
  ---------------------------------------------------
  free energy    TOTEN  =      -260.73209798 eV

  energy without entropy =     -260.47940102  energy(sigma->0) =     -260.60574950


--------------------------------------------------------------------------------------------------------




--------------------------------------- Iteration      1(  19)  ---------------------------------------


    POTLOK:  cpu time    0.2397: real time    0.2441
    SETDIJ:  cpu time    0.0063: real time    0.0063
    EDDIAG:  cpu time    1.4824: real time    1.4861
  RMM-DIIS:  cpu time   42.3043: real time   42.4041
    ORTHCH:  cpu time    0.4159: real time    0.4169
       DOS:  cpu time    0.0005: real time    0.0005
    CHARGE:  cpu time    0.4579: real time    0.4590
    MIXING:  cpu time    0.0156: real time    0.0156
    --------------------------------------------
      LOOP:  cpu time   44.9227: real time   45.0325

 eigenvalue-minimisations  :   675
 total energy-change (2. order) : 0.8755049E+00  (-0.1200386E+00)
 number of electron     555.9999890 magnetization 
 augmentation part      339.7614128 magnetization 

 Broyden mixing:
  rms(total) = 0.26250E+01    rms(broyden)= 0.26238E+01
  rms(prec ) = 0.32059E+01
  weight for this iteration     100.00

 eigenvalues of (default mixing * dielectric matrix)
  average eigenvalue GAMMA=   0.2133
  0.9564  0.5832  0.5832  0.1277  0.1277  0.1182  0.1094  0.1094  0.0580  0.0580
  0.0553  0.0398  0.0347  0.0255

 Free energy of the ion-electron system (eV)
  ---------------------------------------------------
  alpha Z        PSCENC =       387.12086559
  Ewald energy   TEWEN  =    181057.82412088
  -Hartree energ DENC   =   -235762.11965392
  -exchange      EXHF   =         0.00000000
  -V(xc)+E(xc)   XCENC  =      1678.21649665
  PAW double counting   =     49737.34355313   -53478.64775697
  entropy T*S    EENTRO =        -0.32003518
  eigenvalues    EBANDS =     -3440.17680553
  atomic energy  EATOM  =     59560.90262231
  Solvation  Ediel_sol  =         0.00000000
  ---------------------------------------------------
  free energy    TOTEN  =      -259.85659305 eV

  energy without entropy =     -259.53655786  energy(sigma->0) =     -259.69657546


--------------------------------------------------------------------------------------------------------




--------------------------------------- Iteration      1(  20)  ---------------------------------------


    POTLOK:  cpu time    0.2412: real time    0.2454
    SETDIJ:  cpu time    0.0072: real time    0.0072
    EDDIAG:  cpu time    1.4807: real time    1.4845
  RMM-DIIS:  cpu time   42.1867: real time   42.3979
    ORTHCH:  cpu time    0.4195: real time    0.4205
       DOS:  cpu time    0.0003: real time    0.0003
    CHARGE:  cpu time    0.4591: real time    0.4602
    MIXING:  cpu time    0.0164: real time    0.0165
    --------------------------------------------
      LOOP:  cpu time   44.8110: real time   45.0324

 eigenvalue-minimisations  :   675
 total energy-change (2. order) : 0.7298563E+00  (-0.1052457E+00)
 number of electron     555.9999939 magnetization 
 augmentation part      339.9136509 magnetization 

 Broyden mixing:
  rms(total) = 0.22936E+01    rms(broyden)= 0.22924E+01
  rms(prec ) = 0.26746E+01
  weight for this iteration     100.00

 eigenvalues of (default mixing * dielectric matrix)
  average eigenvalue GAMMA=   0.2145
  0.9848  0.6405  0.6405  0.1311  0.1311  0.1310  0.1310  0.1008  0.0640  0.0589
  0.0589  0.0424  0.0424  0.0342  0.0259

 Free energy of the ion-electron system (eV)
  ---------------------------------------------------
  alpha Z        PSCENC =       387.12086559
  Ewald energy   TEWEN  =    181057.82412088
  -Hartree energ DENC   =   -235768.61017829
  -exchange      EXHF   =         0.00000000
  -V(xc)+E(xc)   XCENC  =      1677.96029898
  PAW double counting   =     49796.34435189   -53538.62676076
  entropy T*S    EENTRO =        -0.41610955
  eigenvalues    EBANDS =     -3431.62594779
  atomic energy  EATOM  =     59560.90262231
  Solvation  Ediel_sol  =         0.00000000
  ---------------------------------------------------
  free energy    TOTEN  =      -259.12673673 eV

  energy without entropy =     -258.71062718  energy(sigma->0) =     -258.91868196


--------------------------------------------------------------------------------------------------------




--------------------------------------- Iteration      1(  21)  ---------------------------------------


    POTLOK:  cpu time    0.2405: real time    0.2444
    SETDIJ:  cpu time    0.0064: real time    0.0064
    EDDIAG:  cpu time    1.4815: real time    1.4851
  RMM-DIIS:  cpu time   42.2941: real time   42.4929
    ORTHCH:  cpu time    0.4163: real time    0.4173
       DOS:  cpu time    0.0003: real time    0.0003
    CHARGE:  cpu time    0.4612: real time    0.4623
    MIXING:  cpu time    0.0167: real time    0.0167
    --------------------------------------------
      LOOP:  cpu time   44.9170: real time   45.1256

 eigenvalue-minimisations  :   676
 total energy-change (2. order) : 0.7262399E+00  (-0.6703827E-01)
 number of electron     555.9999938 magnetization 
 augmentation part      340.0090866 magnetization 

 Broyden mixing:
  rms(total) = 0.15120E+01    rms(broyden)= 0.15106E+01
  rms(prec ) = 0.17725E+01
  weight for this iteration     100.00

 eigenvalues of (default mixing * dielectric matrix)
  average eigenvalue GAMMA=   0.2117
  1.0152  0.6546  0.6546  0.1548  0.1548  0.1270  0.1270  0.1117  0.0633  0.0633
  0.0629  0.0559  0.0408  0.0408  0.0342  0.0257

 Free energy of the ion-electron system (eV)
  ---------------------------------------------------
  alpha Z        PSCENC =       387.12086559
  Ewald energy   TEWEN  =    181057.82412088
  -Hartree energ DENC   =   -235771.53313816
  -exchange      EXHF   =         0.00000000
  -V(xc)+E(xc)   XCENC  =      1677.71710766
  PAW double counting   =     49826.50267762   -53569.10292617
  entropy T*S    EENTRO =        -0.47943135
  eigenvalues    EBANDS =     -3427.35239518
  atomic energy  EATOM  =     59560.90262231
  Solvation  Ediel_sol  =         0.00000000
  ---------------------------------------------------
  free energy    TOTEN  =      -258.40049678 eV

  energy without entropy =     -257.92106543  energy(sigma->0) =     -258.16078111


--------------------------------------------------------------------------------------------------------




--------------------------------------- Iteration      1(  22)  ---------------------------------------


    POTLOK:  cpu time    0.2402: real time    0.2442
    SETDIJ:  cpu time    0.0063: real time    0.0063
    EDDIAG:  cpu time    1.4825: real time    1.4863
  RMM-DIIS:  cpu time   42.2742: real time   42.3775
    ORTHCH:  cpu time    0.4166: real time    0.4176
       DOS:  cpu time    0.0004: real time    0.0004
    CHARGE:  cpu time    0.4567: real time    0.4578
    MIXING:  cpu time    0.0172: real time    0.0172
    --------------------------------------------
      LOOP:  cpu time   44.8940: real time   45.0073

 eigenvalue-minimisations  :   675
 total energy-change (2. order) : 0.2062552E+00  (-0.3266250E-01)
 number of electron     555.9999949 magnetization 
 augmentation part      340.1341768 magnetization 

 Broyden mixing:
  rms(total) = 0.13580E+01    rms(broyden)= 0.13566E+01
  rms(prec ) = 0.15931E+01
  weight for this iteration     100.00

 eigenvalues of (default mixing * dielectric matrix)
  average eigenvalue GAMMA=   0.2108
  1.0479  0.6694  0.6694  0.1873  0.1873  0.1274  0.1274  0.1121  0.0771  0.0667
  0.0667  0.0536  0.0536  0.0387  0.0387  0.0341  0.0258

 Free energy of the ion-electron system (eV)
  ---------------------------------------------------
  alpha Z        PSCENC =       387.12086559
  Ewald energy   TEWEN  =    181057.82412088
  -Hartree energ DENC   =   -235774.65823090
  -exchange      EXHF   =         0.00000000
  -V(xc)+E(xc)   XCENC  =      1677.47833518
  PAW double counting   =     49848.50093415   -53591.57337717
  entropy T*S    EENTRO =        -0.46169950
  eigenvalues    EBANDS =     -3423.32781216
  atomic energy  EATOM  =     59560.90262231
  Solvation  Ediel_sol  =         0.00000000
  ---------------------------------------------------
  free energy    TOTEN  =      -258.19424162 eV

  energy without entropy =     -257.73254212  energy(sigma->0) =     -257.96339187


--------------------------------------------------------------------------------------------------------




--------------------------------------- Iteration      1(  23)  ---------------------------------------


    POTLOK:  cpu time    0.2403: real time    0.2446
    SETDIJ:  cpu time    0.0063: real time    0.0063
    EDDIAG:  cpu time    1.4811: real time    1.4849
  RMM-DIIS:  cpu time   42.3432: real time   42.4430
    ORTHCH:  cpu time    0.4169: real time    0.4179
       DOS:  cpu time    0.0003: real time    0.0003
    CHARGE:  cpu time    0.4596: real time    0.4607
    MIXING:  cpu time    0.0183: real time    0.0184
    --------------------------------------------
      LOOP:  cpu time   44.9660: real time   45.0761

 eigenvalue-minimisations  :   676
 total energy-change (2. order) : 0.2714138E+00  (-0.2840141E-01)
 number of electron     555.9999942 magnetization 
 augmentation part      340.3787186 magnetization 

 Broyden mixing:
  rms(total) = 0.10302E+01    rms(broyden)= 0.10285E+01
  rms(prec ) = 0.12259E+01
  weight for this iteration     100.00

 eigenvalues of (default mixing * dielectric matrix)
  average eigenvalue GAMMA=   0.2166
  1.0457  0.7213  0.7213  0.3071  0.1309  0.1309  0.1442  0.1442  0.0974  0.0974
  0.0588  0.0588  0.0620  0.0422  0.0422  0.0345  0.0345  0.0257

 Free energy of the ion-electron system (eV)
  ---------------------------------------------------
  alpha Z        PSCENC =       387.12086559
  Ewald energy   TEWEN  =    181057.82412088
  -Hartree energ DENC   =   -235778.73327221
  -exchange      EXHF   =         0.00000000
  -V(xc)+E(xc)   XCENC  =      1677.19230354
  PAW double counting   =     49872.28768890   -53616.03126199
  entropy T*S    EENTRO =        -0.49846125
  eigenvalues    EBANDS =     -3417.98743358
  atomic energy  EATOM  =     59560.90262231
  Solvation  Ediel_sol  =         0.00000000
  ---------------------------------------------------
  free energy    TOTEN  =      -257.92282782 eV

  energy without entropy =     -257.42436657  energy(sigma->0) =     -257.67359719


--------------------------------------------------------------------------------------------------------




--------------------------------------- Iteration      1(  24)  ---------------------------------------


    POTLOK:  cpu time    0.2429: real time    0.2475
    SETDIJ:  cpu time    0.0064: real time    0.0064
    EDDIAG:  cpu time    1.4834: real time    1.4873
  RMM-DIIS:  cpu time   42.2935: real time   42.3932
    ORTHCH:  cpu time    0.4170: real time    0.4180
       DOS:  cpu time    0.0005: real time    0.0005
    CHARGE:  cpu time    0.4536: real time    0.4548
    MIXING:  cpu time    0.0192: real time    0.0192
    --------------------------------------------
      LOOP:  cpu time   44.9166: real time   45.0268

 eigenvalue-minimisations  :   675
 total energy-change (2. order) :-0.9546414E-01  (-0.3146783E-01)
 number of electron     555.9999925 magnetization 
 augmentation part      340.5411571 magnetization 

 Broyden mixing:
  rms(total) = 0.12099E+01    rms(broyden)= 0.12087E+01
  rms(prec ) = 0.14359E+01
  weight for this iteration     100.00

 eigenvalues of (default mixing * dielectric matrix)
  average eigenvalue GAMMA=   0.2288
  1.0182  0.8379  0.8379  0.3152  0.3152  0.1269  0.1269  0.1304  0.1304  0.0942
  0.0596  0.0596  0.0645  0.0545  0.0409  0.0409  0.0337  0.0337  0.0257

 Free energy of the ion-electron system (eV)
  ---------------------------------------------------
  alpha Z        PSCENC =       387.12086559
  Ewald energy   TEWEN  =    181057.82412088
  -Hartree energ DENC   =   -235783.39286328
  -exchange      EXHF   =         0.00000000
  -V(xc)+E(xc)   XCENC  =      1676.92713763
  PAW double counting   =     49888.88375350   -53633.11831562
  entropy T*S    EENTRO =        -0.46323874
  eigenvalues    EBANDS =     -3412.70237424
  atomic energy  EATOM  =     59560.90262231
  Solvation  Ediel_sol  =         0.00000000
  ---------------------------------------------------
  free energy    TOTEN  =      -258.01829196 eV

  energy without entropy =     -257.55505322  energy(sigma->0) =     -257.78667259


--------------------------------------------------------------------------------------------------------




--------------------------------------- Iteration      1(  25)  ---------------------------------------


    POTLOK:  cpu time    0.2399: real time    0.2442
    SETDIJ:  cpu time    0.0063: real time    0.0063
    EDDIAG:  cpu time    1.4806: real time    1.4845
  RMM-DIIS:  cpu time   42.3760: real time   42.4762
    ORTHCH:  cpu time    0.4149: real time    0.4159
       DOS:  cpu time    0.0004: real time    0.0004
    CHARGE:  cpu time    0.4586: real time    0.4597
    MIXING:  cpu time    0.0206: real time    0.0206
    --------------------------------------------
      LOOP:  cpu time   44.9974: real time   45.1079

 eigenvalue-minimisations  :   676
 total energy-change (2. order) :-0.2506630E+00  (-0.3748740E-01)
 number of electron     555.9999922 magnetization 
 augmentation part      340.7065111 magnetization 

 Broyden mixing:
  rms(total) = 0.15035E+01    rms(broyden)= 0.15021E+01
  rms(prec ) = 0.17641E+01
  weight for this iteration     100.00

 eigenvalues of (default mixing * dielectric matrix)
  average eigenvalue GAMMA=   0.2423
  0.9862  0.9605  0.9605  0.4278  0.4278  0.1272  0.1272  0.1321  0.1321  0.0941
  0.0668  0.0668  0.0587  0.0587  0.0469  0.0404  0.0404  0.0257  0.0334  0.0334

 Free energy of the ion-electron system (eV)
  ---------------------------------------------------
  alpha Z        PSCENC =       387.12086559
  Ewald energy   TEWEN  =    181057.82412088
  -Hartree energ DENC   =   -235791.95306732
  -exchange      EXHF   =         0.00000000
  -V(xc)+E(xc)   XCENC  =      1676.76040187
  PAW double counting   =     49918.75344445   -53663.80544909
  entropy T*S    EENTRO =        -0.41664457
  eigenvalues    EBANDS =     -3403.45524908
  atomic energy  EATOM  =     59560.90262231
  Solvation  Ediel_sol  =         0.00000000
  ---------------------------------------------------
  free energy    TOTEN  =      -258.26895496 eV

  energy without entropy =     -257.85231039  energy(sigma->0) =     -258.06063267


--------------------------------------------------------------------------------------------------------




--------------------------------------- Iteration      1(  26)  ---------------------------------------


    POTLOK:  cpu time    0.2410: real time    0.2454
    SETDIJ:  cpu time    0.0063: real time    0.0064
    EDDIAG:  cpu time    1.4816: real time    1.4855
  RMM-DIIS:  cpu time   42.2979: real time   42.3976
    ORTHCH:  cpu time    0.4153: real time    0.4163
       DOS:  cpu time    0.0005: real time    0.0005
    CHARGE:  cpu time    0.4516: real time    0.4527
    MIXING:  cpu time    0.0211: real time    0.0211
    --------------------------------------------
      LOOP:  cpu time   44.9153: real time   45.0255

 eigenvalue-minimisations  :   675
 total energy-change (2. order) : 0.2091842E+00  (-0.3407844E-01)
 number of electron     555.9999950 magnetization 
 augmentation part      340.7693515 magnetization 

 Broyden mixing:
  rms(total) = 0.13025E+01    rms(broyden)= 0.13006E+01
  rms(prec ) = 0.15497E+01
  weight for this iteration     100.00

 eigenvalues of (default mixing * dielectric matrix)
  average eigenvalue GAMMA=   0.2459
  1.0494  1.0494  0.9029  0.4995  0.4995  0.1384  0.1384  0.1273  0.1273  0.0878
  0.0878  0.0629  0.0629  0.0587  0.0587  0.0418  0.0418  0.0257  0.0384  0.0338
  0.0325

 Free energy of the ion-electron system (eV)
  ---------------------------------------------------
  alpha Z        PSCENC =       387.12086559
  Ewald energy   TEWEN  =    181057.82412088
  -Hartree energ DENC   =   -235807.22456655
  -exchange      EXHF   =         0.00000000
  -V(xc)+E(xc)   XCENC  =      1676.69181252
  PAW double counting   =     49977.69038140   -53723.99663213
  entropy T*S    EENTRO =        -0.46130889
  eigenvalues    EBANDS =     -3386.60706587
  atomic energy  EATOM  =     59560.90262231
  Solvation  Ediel_sol  =         0.00000000
  ---------------------------------------------------
  free energy    TOTEN  =      -258.05977074 eV

  energy without entropy =     -257.59846184  energy(sigma->0) =     -257.82911629


--------------------------------------------------------------------------------------------------------




--------------------------------------- Iteration      1(  27)  ---------------------------------------


    POTLOK:  cpu time    0.2429: real time    0.2470
    SETDIJ:  cpu time    0.0063: real time    0.0063
    EDDIAG:  cpu time    1.4798: real time    1.4834
  RMM-DIIS:  cpu time   42.3062: real time   42.4060
    ORTHCH:  cpu time    0.4157: real time    0.4167
       DOS:  cpu time    0.0003: real time    0.0003
    CHARGE:  cpu time    0.4580: real time    0.4591
    MIXING:  cpu time    0.0228: real time    0.0228
    --------------------------------------------
      LOOP:  cpu time   44.9319: real time   45.0416

 eigenvalue-minimisations  :   675
 total energy-change (2. order) : 0.2239781E+00  (-0.2825396E-01)
 number of electron     555.9999921 magnetization 
 augmentation part      340.7657817 magnetization 

 Broyden mixing:
  rms(total) = 0.94933E+00    rms(broyden)= 0.94754E+00
  rms(prec ) = 0.11342E+01
  weight for this iteration     100.00

 eigenvalues of (default mixing * dielectric matrix)
  average eigenvalue GAMMA=   0.2526
  1.1697  1.1697  0.7858  0.5621  0.5621  0.1641  0.1641  0.1280  0.1280  0.1014
  0.1014  0.0687  0.0687  0.0590  0.0590  0.0541  0.0412  0.0412  0.0257  0.0371
  0.0323  0.0339

 Free energy of the ion-electron system (eV)
  ---------------------------------------------------
  alpha Z        PSCENC =       387.12086559
  Ewald energy   TEWEN  =    181057.82412088
  -Hartree energ DENC   =   -235820.18700842
  -exchange      EXHF   =         0.00000000
  -V(xc)+E(xc)   XCENC  =      1676.69296263
  PAW double counting   =     50019.81645126   -53767.11200722
  entropy T*S    EENTRO =        -0.50648664
  eigenvalues    EBANDS =     -3372.38731300
  atomic energy  EATOM  =     59560.90262231
  Solvation  Ediel_sol  =         0.00000000
  ---------------------------------------------------
  free energy    TOTEN  =      -257.83579261 eV

  energy without entropy =     -257.32930597  energy(sigma->0) =     -257.58254929


--------------------------------------------------------------------------------------------------------




--------------------------------------- Iteration      1(  28)  ---------------------------------------


    POTLOK:  cpu time    0.2430: real time    0.2474
    SETDIJ:  cpu time    0.0064: real time    0.0064
    EDDIAG:  cpu time    1.4810: real time    1.4848
  RMM-DIIS:  cpu time   42.3213: real time   42.4215
    ORTHCH:  cpu time    0.4158: real time    0.4168
[...]
    FORCOR:  cpu time    0.3240: real time    0.3249
    FORHAR:  cpu time    0.1568: real time    0.1572
    MIXING:  cpu time    0.0239: real time    0.0240
    OFIELD:  cpu time    0.0000: real time    0.0000

  FORCE on cell =-STRESS in cart. coord.  units (eV):
  Direction    XX          YY          ZZ          XY          YZ          ZX
  --------------------------------------------------------------------------------------
  Alpha Z   387.12087   387.12087   387.12087
  Ewald   60213.44225 59420.28499 62591.35891   349.70620  -262.50018 -1564.90892
  Hartree 78542.24713 77838.78100 80782.42729   320.27314  -250.09649 -1407.02992
  E(xc)   -3038.19225 -3038.42021 -3037.80391     0.04524    -0.04320    -0.36081
  Local  ************************************  -669.02795   512.05175  2967.33045
  n-local -1799.21390 -1800.73483 -1798.40476     0.08437     0.59000    -1.95282
  augment  2814.48152  2818.25865  2812.63872    -0.47083     0.47300     2.82987
  Kinetic  4366.55075  4369.89780  4362.91766    -0.91042     0.29337     3.38675
  Fock        0.00000     0.00000     0.00000     0.00000     0.00000     0.00000
  -------------------------------------------------------------------------------------
  Total      -1.91582    -2.95383    -3.90614    -0.30024     0.76824    -0.70540
  in kB      -0.38369    -0.59157    -0.78229    -0.06013     0.15386    -0.14127
  external pressure =       -0.59 kB  Pullay stress =        0.00 kB


 VOLUME and BASIS-vectors are now :
 -----------------------------------------------------------------------------
  energy-cutoff  :      400.00
  volume of cell :     8000.00
      direct lattice vectors                 reciprocal lattice vectors
    20.000000000  0.000000000  0.000000000     0.050000000  0.000000000  0.000000000
     0.000000000 20.000000000  0.000000000     0.000000000  0.050000000  0.000000000
     0.000000000  0.000000000 20.000000000     0.000000000  0.000000000  0.050000000

  length of vectors
    20.000000000 20.000000000 20.000000000     0.050000000  0.050000000  0.050000000


 FORCES acting on ions
    electron-ion (+dipol)            ewald-force                    non-local-force                 convergence-correction
 -----------------------------------------------------------------------------------------------
   0.183E+04 -.116E+04 0.597E+03   -.183E+04 0.116E+04 -.597E+03   -.182E+01 0.113E+01 -.725E+00   0.165E-01 -.130E-02 -.141E-01
   0.734E+03 -.190E+04 0.966E+03   -.733E+03 0.190E+04 -.965E+03   -.855E+00 0.214E+01 -.103E+01   0.235E-01 -.457E-02 0.290E-02
   0.116E+04 -.189E+04 -.353E+03   -.116E+04 0.189E+04 0.352E+03   -.116E+01 0.199E+01 0.284E+00   0.228E-01 0.755E-02 -.199E-01
   0.325E+02 -.229E+04 0.839E+01   -.323E+02 0.228E+04 -.840E+01   -.145E+00 0.669E+01 0.313E-01   0.806E-02 -.163E-01 -.165E-01
   0.195E+02 -.131E+04 0.152E+02   -.195E+02 0.131E+04 -.150E+02   -.208E-01 -.182E+00 -.820E-01   0.738E-02 0.219E-01 -.311E-01
   -.678E+03 -.192E+04 0.966E+03   0.677E+03 0.192E+04 -.965E+03   0.705E+00 0.206E+01 -.101E+01   -.893E-02 -.846E-02 0.797E-02
   -.111E+04 -.192E+04 -.362E+03   0.111E+04 0.192E+04 0.362E+03   0.119E+01 0.216E+01 0.474E+00   -.109E-01 0.412E-02 -.273E-01
   0.197E+04 -.103E+04 -.623E+03   -.197E+04 0.103E+04 0.621E+03   -.592E+01 0.311E+01 0.207E+01   0.121E-02 -.978E-03 -.510E-02
   0.178E+04 -.182E+02 -.120E+04   -.178E+04 0.191E+02 0.120E+04   -.260E+00 -.899E+00 0.222E+01   -.357E-02 -.128E-01 -.324E-02
   0.113E+04 -.556E+03 -.361E+03   -.113E+04 0.556E+03 0.361E+03   0.244E+00 0.145E+00 -.200E+00   0.716E-02 -.230E-02 -.243E-01
   0.112E+04 -.122E+04 -.151E+04   -.112E+04 0.122E+04 0.150E+04   -.158E+01 0.559E+00 0.244E+01   -.525E-02 0.560E-02 -.481E-02
   0.883E+01 -.192E+04 -.117E+04   -.890E+01 0.192E+04 0.117E+04   0.808E-01 0.199E+01 0.108E+01   0.317E-02 0.146E-01 -.322E-01
   -.599E+01 -.587E+03 -.114E+04   0.595E+01 0.587E+03 0.115E+04   0.552E-01 0.219E+00 -.269E+00   -.102E-01 0.158E-01 -.220E-01
   -.111E+04 -.605E+03 -.348E+03   0.111E+04 0.605E+03 0.348E+03   -.116E+00 -.429E-01 -.880E-01   -.351E-02 0.455E-01 -.245E-01
   -.114E+04 -.120E+04 -.153E+04   0.114E+04 0.120E+04 0.153E+04   0.121E+01 0.112E+01 0.134E+01   0.107E-01 0.179E-01 -.153E-01
   0.125E+04 -.104E+04 0.168E+04   -.124E+04 0.103E+04 -.167E+04   -.364E+01 0.305E+01 -.495E+01   0.128E-01 0.239E-02 0.561E-02
   0.182E+04 0.140E+02 0.133E+04   -.182E+04 -.141E+02 -.133E+04   -.205E+01 0.121E+00 -.148E+01   0.701E-02 -.871E-02 0.562E-02
   0.704E+03 0.497E-01 0.212E+04   -.703E+03 -.628E-01 -.212E+04   -.783E+00 -.247E-02 -.229E+01   -.105E-01 0.154E-01 0.774E-02
   0.699E+03 -.586E+03 0.952E+03   -.699E+03 0.586E+03 -.952E+03   0.138E+00 -.570E-01 0.111E+00   0.651E-02 0.167E-01 -.513E-03
   0.153E+02 -.120E+04 0.190E+04   -.152E+02 0.120E+04 -.190E+04   -.105E+00 0.128E+01 -.215E+01   0.327E-02 0.118E-01 0.187E-01
   -.919E+01 0.580E+03 0.118E+04   0.926E+01 -.580E+03 -.118E+04   -.374E-01 0.308E-01 0.177E+00   -.354E-01 0.233E-01 -.181E-02
   -.703E+03 -.173E+02 0.212E+04   0.702E+03 0.173E+02 -.212E+04   0.701E+00 0.103E-02 -.239E+01   -.530E-02 0.329E-01 -.895E-03
   -.686E+03 -.597E+03 0.955E+03   0.687E+03 0.597E+03 -.955E+03   -.733E-01 -.513E-01 0.131E+00   -.127E-01 0.504E-01 -.472E-02
   0.222E+04 0.373E+02 -.720E+01   -.221E+04 -.370E+02 0.733E+01   -.287E+01 -.224E+00 -.764E-01   0.850E-02 -.211E-01 -.128E-01
   0.179E+04 0.121E+04 -.545E+03   -.179E+04 -.121E+04 0.544E+03   -.218E+01 -.749E+00 0.793E+00   -.248E-02 -.134E-02 -.183E-01
   0.111E+04 0.588E+03 0.383E+03   -.111E+04 -.588E+03 -.383E+03   0.194E+00 0.636E-01 -.109E+00   -.231E-01 -.418E-02 -.780E-02
   0.677E+03 0.584E+03 -.929E+03   -.677E+03 -.585E+03 0.929E+03   0.875E-01 0.233E-02 -.102E+00   -.296E-01 -.587E-02 -.112E-01
   0.185E+01 -.480E+01 0.687E+01   -.188E+01 0.471E+01 -.674E+01   0.521E-01 0.491E-01 -.994E-01   -.286E-01 0.352E-01 -.229E-01
   -.213E+02 0.130E+04 0.146E+02   0.214E+02 -.130E+04 -.147E+02   -.103E+00 0.201E+00 0.161E+00   -.428E-01 -.747E-02 -.539E-02
   -.112E+04 0.572E+03 0.372E+03   0.112E+04 -.572E+03 -.372E+03   -.198E+00 -.298E-02 0.715E-01   -.357E-02 0.277E-01 -.962E-02
   -.710E+03 0.568E+03 -.935E+03   0.710E+03 -.568E+03 0.935E+03   0.126E-01 0.869E-01 -.170E+00   -.909E-02 0.477E-02 0.896E-02
   -.180E+04 -.122E+04 0.600E+03   0.180E+04 0.121E+04 -.599E+03   0.205E+01 0.127E+01 -.602E+00   -.187E-01 0.202E-01 -.659E-02
   -.196E+04 -.107E+04 -.644E+03   0.195E+04 0.107E+04 0.642E+03   0.580E+01 0.311E+01 0.184E+01   -.329E-02 0.162E-01 -.140E-01
   -.183E+04 -.205E+02 -.132E+04   0.182E+04 0.203E+02 0.132E+04   0.202E+01 0.132E+00 0.136E+01   0.152E-01 0.141E-01 0.458E-02
   -.122E+04 -.107E+04 0.168E+04   0.122E+04 0.107E+04 -.168E+04   0.352E+01 0.310E+01 -.487E+01   -.138E-01 0.148E-01 0.153E-01
   -.182E+04 -.275E+02 0.133E+04   0.182E+04 0.275E+02 -.133E+04   0.207E+01 0.116E-01 -.143E+01   0.149E-02 0.357E-01 -.938E-02
   -.223E+04 -.267E+02 0.376E+01   0.223E+04 0.266E+02 -.386E+01   0.241E+01 0.191E-01 0.100E+00   0.120E-01 0.281E-01 -.377E-02
   -.183E+04 0.117E+04 -.587E+03   0.183E+04 -.117E+04 0.586E+03   0.199E+01 -.118E+01 0.579E+00   0.185E-01 -.606E-02 0.112E-01
   0.520E+03 -.356E+02 -.204E+04   -.518E+03 0.368E+02 0.204E+04   -.246E+01 -.125E+01 0.719E-01   -.137E-01 -.817E-02 0.488E-02
   -.455E+02 -.110E+04 -.203E+04   0.459E+02 0.109E+04 0.203E+04   -.302E+00 0.309E+01 0.625E+01   -.472E-02 0.794E-02 0.463E-02
   -.740E+03 -.815E+00 -.210E+04   0.739E+03 0.104E+01 0.210E+04   0.997E+00 -.234E+00 0.276E+01   0.156E-02 -.289E-02 0.138E-01
   0.112E+04 0.121E+04 -.151E+04   -.112E+04 -.121E+04 0.151E+04   -.206E+01 0.495E+00 0.345E+01   -.885E-02 -.198E-02 -.681E-02
   0.647E+03 0.194E+04 -.911E+03   -.647E+03 -.194E+04 0.910E+03   -.724E-01 -.238E+01 0.258E+00   -.215E-01 -.280E-02 -.575E-02
   -.584E+02 0.121E+04 -.187E+04   0.589E+02 -.121E+04 0.186E+04   -.421E+00 -.763E+00 0.270E+01   -.141E-01 -.855E-02 0.112E-01
   -.746E+03 0.190E+04 -.942E+03   0.746E+03 -.190E+04 0.941E+03   0.731E+00 -.213E+01 0.978E+00   -.893E-02 -.184E-01 0.106E-01
   -.127E+04 0.104E+04 -.167E+04   0.126E+04 -.104E+04 0.166E+04   0.367E+01 -.301E+01 0.500E+01   0.588E-02 -.726E-02 0.172E-01
   0.112E+04 0.120E+04 0.156E+04   -.112E+04 -.120E+04 -.156E+04   -.117E+01 -.128E+01 -.171E+01   -.218E-01 0.314E-02 0.146E-01
   -.161E+02 0.104E+04 0.206E+04   0.160E+02 -.103E+04 -.206E+04   0.125E+00 -.308E+01 -.615E+01   -.182E-01 0.268E-02 -.690E-02
   -.115E+04 0.117E+04 0.156E+04   0.115E+04 -.116E+04 -.156E+04   0.123E+01 -.144E+01 -.163E+01   0.128E-02 0.716E-03 -.169E-01
   0.195E+04 0.106E+04 0.671E+03   -.195E+04 -.106E+04 -.669E+03   -.586E+01 -.316E+01 -.191E+01   0.125E-01 0.128E-02 0.399E-02
   0.110E+04 0.192E+04 0.400E+03   -.110E+04 -.192E+04 -.399E+03   -.123E+01 -.224E+01 -.451E+00   -.213E-01 0.104E-01 -.304E-02
   -.299E+02 0.189E+04 0.121E+04   0.298E+02 -.189E+04 -.121E+04   0.137E+00 -.179E+01 -.133E+01   -.284E-01 -.121E-01 -.631E-03
   -.116E+04 0.189E+04 0.386E+03   0.116E+04 -.188E+04 -.386E+03   0.132E+01 -.181E+01 -.547E+00   -.276E-02 -.242E-01 -.168E-02
   -.198E+04 0.102E+04 0.658E+03   0.197E+04 -.102E+04 -.656E+03   0.584E+01 -.305E+01 -.201E+01   0.239E-01 -.169E-03 -.795E-02
   -.509E+02 0.229E+04 0.400E+02   0.512E+02 -.228E+04 -.404E+02   -.246E+00 -.691E+01 0.406E+00   -.193E-01 -.985E-02 -.249E-02
   0.711E+03 0.129E+03 -.108E+04   -.712E+03 -.130E+03 0.108E+04   0.950E+00 0.725E+00 -.281E+01   -.270E-02 -.179E-02 -.193E-02
 -----------------------------------------------------------------------------------------------
   -.154E+01 -.257E+01 0.580E+01   -.557E-11 0.625E-12 0.182E-11   0.178E+01 0.226E+01 -.554E+01   -.237E+00 0.309E+00 -.254E+00
 
 
 POSITION                                       TOTAL-FORCE (eV/Angst)
 -----------------------------------------------------------------------------------
      7.01842     11.88981      8.23528         0.006801     -0.022742      0.037161
      9.01665     13.26442      7.55263        -0.010196      0.003471      0.008065
      8.25193     13.23222      9.95180         0.001415     -0.012108      0.013543
     10.26057     14.44639      9.28286        -0.003023     -0.006267      0.002096
     10.28874     12.15378      9.27334        -0.005683     -0.003992      0.008902
     11.53901     13.29507      7.55852        -0.007963     -0.004394     -0.000578
     12.31809     13.29994      9.94403         0.005936      0.002658     -0.006583
      6.35889     11.81979     10.58451         0.009693     -0.016590      0.039936
      7.00929      9.78328     11.84564        -0.019676      0.022934      0.049726
      8.30929     10.81422      9.96581         0.003726     -0.021641      0.033251
      8.29263     11.95128     12.08452         0.025535      0.002012      0.019604
     10.29191     13.27914     11.40942         0.014709     -0.003001      0.005675
     10.31098     10.86929     11.38498         0.009612     -0.004545      0.008207
     12.30407     10.89246      9.91709         0.000474      0.009535     -0.007478
     12.34340     11.97080     12.06617         0.012150     -0.006867     -0.006736
      7.85792     11.86554      5.93421        -0.012289     -0.002723      0.019812
      7.03893      9.78218      6.89803        -0.003359     -0.003801      0.019176
      9.06973      9.80822      5.41985        -0.003391     -0.000311      0.012932
      9.08588     10.85485      7.58987         0.005423      0.005043      0.011066
     10.29846     11.96570      5.83367        -0.008983      0.004753      0.008844
     10.33615      8.77207      7.18678        -0.001601     -0.003091      0.003897
     11.58181      9.84431      5.41599        -0.004057      0.003373     -0.000719
     11.54713     10.88021      7.58690        -0.000175     -0.005308     -0.000776
      6.26272      9.74106      9.33774         0.006170     -0.021792      0.047466
      7.09230      7.61234     10.32407         0.032738     -0.024304      0.016154
      8.34672      8.74937      8.62162         0.005119      0.002376     -0.002828
      9.09981      8.73311     10.98452         0.012190     -0.014619      0.007426
     10.31886      9.81891      9.28836        -0.001508     -0.003972      0.001043
     10.34612      7.47281      9.28868         0.002358     -0.005347      0.003029
     12.32150      8.78815      8.63334        -0.000586     -0.005754      0.000736
     11.57323      8.79461     10.97660         0.013706      0.008969     -0.001036
     13.58645     12.00450      8.21878         0.000736      0.004709     -0.007957
     14.24866     11.93445     10.56440         0.008114      0.004189     -0.010343
     13.61085      9.85628     11.66720         0.014512     -0.000891     -0.014301
     12.73969     11.92514      5.93389        -0.004537     -0.000622     -0.003116
     13.61560      9.86365      6.89422        -0.000179      0.002312     -0.000970
     14.38151      9.85957      9.28207        -0.003320      0.002494     -0.006271
     13.62868      7.70775     10.33692         0.004530     -0.004770     -0.009599
      9.13464      9.86024     13.24654         0.001488     -0.046214      0.018448
     10.35418     11.92816     13.42650         0.027227     -0.015907      0.006965
     11.59111      9.82419     13.16071         0.011233     -0.014467      0.013201
      7.92016      7.55315     12.60476         0.059039      0.008391      0.055002
      9.13977      6.29862     10.96290         0.019780     -0.021709     -0.004159
     10.37684      7.63856     12.69904         0.031800     -0.027043     -0.027473
     11.62377      6.36058     10.99179         0.018529     -0.007229     -0.021736
     12.79918      7.76556     12.62231         0.014079      0.001482     -0.011324
      8.32686      7.65038      6.48068         0.001150     -0.004103      0.001193
     10.35186      7.75795      5.12336        -0.001940      0.001280     -0.006052
     12.38417      7.71466      6.48048         0.000608      0.006336     -0.003274
      6.40917      7.70109      7.98729         0.006488     -0.005518      0.020879
      8.33976      6.32238      8.60149         0.013918     -0.004470      0.000570
     10.37165      6.37171      7.12578         0.012716      0.001697     -0.010299
     12.40643      6.38867      8.60278         0.009850     -0.002509     -0.013502
     14.29892      7.79558      7.99451         0.004724      0.002397     -0.007343
     10.41264      5.16527      9.22362         0.019774     -0.010787     -0.026566
      7.31151      9.05111     13.92219        -0.355588      0.258998     -0.282983
 -----------------------------------------------------------------------------------
    total drift:                               -0.001805      0.006826      0.012545


--------------------------------------------------------------------------------------------------------



  FREE ENERGIE OF THE ION-ELECTRON SYSTEM (eV)
  ---------------------------------------------------
  free  energy   TOTEN  =      -258.03282517 eV

  energy  without entropy=     -257.51026998  energy(sigma->0) =     -257.77154758
 
 d Force = 0.4245105E-02[ 0.411E-02, 0.438E-02]  d Energy = 0.4252133E-02-0.703E-05
 d Force =-0.4304794E+01[-0.427E+01,-0.434E+01]  d Ewald  =-0.4304791E+01-0.338E-05


--------------------------------------------------------------------------------------------------------


    POTLOK:  cpu time    0.2585: real time    0.2599


--------------------------------------------------------------------------------------------------------


 NEB: the previous image is higher in energy: T
 NEB: the next image is higher in energy    : F
 NEB: only prev energy greater

 NEB: Tangent
 ----------------------------------------------
      0.00985     -0.01840      0.02494
     -0.00313      0.00709      0.00041
     -0.00369     -0.01116      0.00028
     -0.00061     -0.00882      0.00519
     -0.00840     -0.00660      0.01367
     -0.00767     -0.00542     -0.00161
      0.00650      0.00109     -0.00495
     -0.00023     -0.01301      0.02120
     -0.05569      0.05274      0.08427
     -0.00695     -0.02720      0.03267
      0.01955      0.00381      0.00668
      0.00834     -0.00652      0.00902
      0.00326     -0.00689      0.00656
     -0.00535      0.00995     -0.00073
      0.00486     -0.01388     -0.00152
     -0.00546     -0.00134      0.00997
     -0.00059     -0.00304      0.01396
      0.00268     -0.00185      0.01177
      0.00848      0.01148      0.00545
     -0.00440      0.00600      0.00606
     -0.00201     -0.00507      0.00388
     -0.00250      0.00255     -0.00021
     -0.00027     -0.00449      0.00177
     -0.00104     -0.01803      0.04108
      0.03898     -0.01339      0.02480
      0.00324      0.00507     -0.01158
      0.01066     -0.00777      0.00754
     -0.00303     -0.00327      0.00204
     -0.00301     -0.00384      0.00890
     -0.00107     -0.00410      0.00254
      0.01610      0.00862     -0.00629
     -0.00127      0.00279     -0.00424
      0.00496      0.00565     -0.00244
      0.01930     -0.00555     -0.01603
     -0.00075     -0.00283     -0.00367
      0.00122      0.00171     -0.00097
     -0.00694      0.00507     -0.00487
      0.00744     -0.00757     -0.01132
      0.00229     -0.06674      0.01641
      0.02010     -0.03094      0.00516
      0.00414     -0.02728      0.01890
      0.09020      0.03783      0.08838
      0.02032     -0.01606      0.00394
      0.04458     -0.03888     -0.04610
      0.02383     -0.01353     -0.02625
      0.01821     -0.00110     -0.01450
      0.00131     -0.00574      0.00197
     -0.00260     -0.00174     -0.00630
     -0.00004      0.00760     -0.00100
      0.00660     -0.00380      0.02636
      0.01133     -0.00045      0.01167
      0.01509      0.00250     -0.00704
      0.00796      0.00049     -0.01070
      0.00663      0.00389     -0.00787
      0.01850     -0.01168     -0.02630
     -0.66218      0.50141     -0.49866

 NEB: forces: par spring, perp REAL, dneb     0.040459    0.090964    0.000000
 NEB: distance to prev, next image, angle between     0.458110    0.466202  136.945955
 NEB: projections on to tangent (spring, REAL)     0.040459    0.550282

 stress matrix after NEB project (eV)
     -1.91582     -0.30024     -0.70540
     -0.30024     -2.95383      0.76824
     -0.70540      0.76824     -3.90614
  FORCES: max atom, RMS     0.034088    0.013304
  FORCE total and by dimension    0.099556    0.029129
  Stress total and by dimension    5.478071    3.906139
 OPT: skip step - force has converged


--------------------------------------------------------------------------------------------------------


  
 reached required accuracy - stopping structural energy minimisation
     LOOP+:  cpu time 1169.8227: real time 1173.5486
    4ORBIT:  cpu time    0.0000: real time    0.0000

 total amount of memory used by VASP MPI-rank0   308125. kBytes
=======================================================================

   base      :      30000. kBytes
   nonl-proj :     171888. kBytes
   fftplans  :      15318. kBytes
   grid      :      57304. kBytes
   one-center:        870. kBytes
   wavefun   :      32745. kBytes
 
  
  
 General timing and accounting informations for this job:
 ========================================================
  
                  Total CPU time used (sec):    26292.832
                            User time (sec):    26200.650
                          System time (sec):       92.182
                         Elapsed time (sec):    26363.171
  
                   Maximum memory used (kb):      687960.
                   Average memory used (kb):           0.
  
                          Minor page faults:     15802079
                          Major page faults:            2
                 Voluntary context switches:        14679
