 vasp.5.4.4.18Apr17-6-g9f103f2a35 (build Oct 13 2018 23:10:52) complex          
  
 POSCAR found type information on POSCAR  Ni S 
 05/POSCAR found :  2 types and      56 ions
 scaLAPACK will be used

 ----------------------------------------------------------------------------- 
|                                                                             |
|           W    W    AA    RRRRR   N    N  II  N    N   GGGG   !!!           |
|           W    W   A  A   R    R  NN   N  II  NN   N  G    G  !!!           |
|           W    W  A    A  R    R  N N  N  II  N N  N  G       !!!           |
|           W WW W  AAAAAA  RRRRR   N  N N  II  N  N N  G  GGG   !            |
|           WW  WW  A    A  R   R   N   NN  II  N   NN  G    G                |
|           W    W  A    A  R    R  N    N  II  N    N   GGGG   !!!           |
|                                                                             |
|      For optimal performance we recommend to set                            |
|        NCORE= 4 - approx SQRT( number of cores)                             |
|      NCORE specifies how many cores store one orbital (NPAR=cpu/NCORE).     |
|      This setting can  greatly improve the performance of VASP for DFT.     |
|      The default,   NCORE=1            might be grossly inefficient         |
|      on modern multi-core architectures or massively parallel machines.     |
|      Do your own testing !!!!                                               |
|      Unfortunately you need to use the default for GW and RPA calculations. |
|      (for HF NCORE is supported but not extensively tested yet)             |
|                                                                             |
 ----------------------------------------------------------------------------- 


 ----------------------------------------------------------------------------- 
|                                                                             |
|  ADVICE TO THIS USER RUNNING 'VASP/VAMP'   (HEAR YOUR MASTER'S VOICE ...):  |
|                                                                             |
|      You have a (more or less) 'large supercell' and for larger cells       |
|      it might be more efficient to use real space projection operators      |
|      So try LREAL= Auto  in the INCAR   file.                               |
|      Mind: If you want to do a very accurate calculations keep the          |
|      reciprocal projection scheme          (i.e. LREAL=.FALSE.)             |
|                                                                             |
 ----------------------------------------------------------------------------- 

 LDA part: xc-table for Pade appr. of Perdew
 POSCAR found type information on POSCAR  Ni S 
 00/POSCAR found :  2 types and      56 ions
 POSCAR found type information on POSCAR  Ni S 
 06/POSCAR found :  2 types and      56 ions
 Jacobian:    39.1196235439186     
 POSCAR, INCAR and KPOINTS ok, starting setup
 FFT: planning ...
 WAVECAR not read
 entering main loop
       N       E                     dE             d eps       ncg     rms          rms(c)
DAV:   1     0.285382831663E+04    0.28538E+04   -0.16217E+05   672   0.997E+02
DAV:   2    -0.115357242538E+03   -0.29692E+04   -0.29004E+04   720   0.309E+02
DAV:   3    -0.297581848265E+03   -0.18222E+03   -0.16976E+03   816   0.899E+01
DAV:   4    -0.304114600339E+03   -0.65328E+01   -0.63905E+01   720   0.194E+01
DAV:   5    -0.304295262633E+03   -0.18066E+00   -0.17973E+00   792   0.238E+00    0.538E+01
RMM:   6    -0.459319842091E+03   -0.15502E+03   -0.78106E+02   672   0.804E+01    0.137E+02
RMM:   7    -0.344173029016E+03    0.11515E+03   -0.40103E+02   673   0.579E+01    0.752E+01
RMM:   8    -0.312469876069E+03    0.31703E+02   -0.19173E+02   674   0.402E+01    0.838E+01
RMM:   9    -0.312943537300E+03   -0.47366E+00   -0.61184E+01   674   0.224E+01    0.111E+02
RMM:  10    -0.293047766210E+03    0.19896E+02   -0.57404E+01   674   0.202E+01    0.792E+01
RMM:  11    -0.273576789030E+03    0.19471E+02   -0.20856E+01   676   0.124E+01    0.520E+01
RMM:  12    -0.268210618773E+03    0.53662E+01   -0.42940E+00   676   0.534E+00    0.463E+01
RMM:  13    -0.265532523885E+03    0.26781E+01   -0.30042E+00   676   0.455E+00    0.413E+01
RMM:  14    -0.265844337193E+03   -0.31181E+00   -0.49041E+00   676   0.586E+00    0.451E+01
RMM:  15    -0.264339890086E+03    0.15044E+01   -0.45457E+00   675   0.567E+00    0.402E+01
RMM:  16    -0.262193447000E+03    0.21464E+01   -0.38784E+00   676   0.527E+00    0.329E+01
RMM:  17    -0.260872748643E+03    0.13207E+01   -0.22069E+00   676   0.401E+00    0.289E+01
RMM:  18    -0.260732097978E+03    0.14065E+00   -0.12024E+00   676   0.289E+00    0.358E+01
RMM:  19    -0.259856593048E+03    0.87550E+00   -0.12004E+00   675   0.291E+00    0.262E+01
RMM:  20    -0.259126736728E+03    0.72986E+00   -0.10525E+00   675   0.278E+00    0.229E+01
RMM:  21    -0.258400496785E+03    0.72624E+00   -0.67038E-01   676   0.221E+00    0.151E+01
RMM:  22    -0.258194241618E+03    0.20626E+00   -0.32662E-01   675   0.155E+00    0.136E+01
RMM:  23    -0.257922827819E+03    0.27141E+00   -0.28401E-01   676   0.147E+00    0.103E+01
RMM:  24    -0.258018291960E+03   -0.95464E-01   -0.31468E-01   675   0.152E+00    0.121E+01
RMM:  25    -0.258268954956E+03   -0.25066E+00   -0.37487E-01   676   0.170E+00    0.150E+01
RMM:  26    -0.258059770737E+03    0.20918E+00   -0.34078E-01   675   0.166E+00    0.130E+01
RMM:  27    -0.257835792606E+03    0.22398E+00   -0.28254E-01   675   0.149E+00    0.949E+00
RMM:  28    -0.257951813165E+03   -0.11602E+00   -0.22381E-01   676   0.127E+00    0.116E+01
RMM:  29    -0.257876633937E+03    0.75179E-01   -0.20239E-01   675   0.125E+00    0.110E+01
RMM:  30    -0.257704419807E+03    0.17221E+00   -0.15783E-01   675   0.115E+00    0.674E+00
RMM:  31    -0.257664976014E+03    0.39444E-01   -0.82818E-02   676   0.809E-01    0.563E+00
RMM:  32    -0.257636905988E+03    0.28070E-01   -0.42523E-02   676   0.584E-01    0.416E+00
RMM:  33    -0.257617222893E+03    0.19683E-01   -0.33786E-02   675   0.537E-01    0.337E+00
RMM:  34    -0.257621687155E+03   -0.44643E-02   -0.25654E-02   676   0.450E-01    0.345E+00
RMM:  35    -0.257635200552E+03   -0.13513E-01   -0.37633E-02   675   0.541E-01    0.369E+00
RMM:  36    -0.257619951705E+03    0.15249E-01   -0.29712E-02   675   0.501E-01    0.353E+00
RMM:  37    -0.257603606043E+03    0.16346E-01   -0.20408E-02   676   0.410E-01    0.200E+00
RMM:  38    -0.257607726887E+03   -0.41208E-02   -0.15168E-02   675   0.340E-01    0.234E+00
RMM:  39    -0.257605142386E+03    0.25845E-02   -0.11592E-02   675   0.307E-01    0.213E+00
RMM:  40    -0.257599064836E+03    0.60776E-02   -0.84064E-03   675   0.272E-01    0.136E+00
RMM:  41    -0.257600051189E+03   -0.98635E-03   -0.59809E-03   676   0.217E-01    0.146E+00
RMM:  42    -0.257601006797E+03   -0.95561E-03   -0.66320E-03   675   0.221E-01    0.139E+00
RMM:  43    -0.257598002809E+03    0.30040E-02   -0.45900E-03   675   0.198E-01    0.832E-01
RMM:  44    -0.257598738834E+03   -0.73602E-03   -0.24732E-03   676   0.141E-01    0.794E-01
RMM:  45    -0.257601751628E+03   -0.30128E-02   -0.24606E-03   675   0.135E-01    0.100E+00
RMM:  46    -0.257601117092E+03    0.63454E-03   -0.19698E-03   675   0.129E-01    0.454E-01
RMM:  47    -0.257602468570E+03   -0.13515E-02   -0.11266E-03   676   0.931E-02    0.500E-01
RMM:  48    -0.257605936284E+03   -0.34677E-02   -0.14574E-03   674   0.102E-01    0.648E-01
RMM:  49    -0.257607047832E+03   -0.11115E-02   -0.11017E-03   674   0.944E-02    0.399E-01
RMM:  50    -0.257608098721E+03   -0.10509E-02   -0.54715E-04   676   0.631E-02    0.412E-01
RMM:  51    -0.257610508574E+03   -0.24099E-02   -0.58381E-04   673   0.594E-02    0.383E-01
RMM:  52    -0.257610996696E+03   -0.48812E-03   -0.34143E-04   674   0.519E-02    0.152E-01
RMM:  53    -0.257612888360E+03   -0.18917E-02   -0.35237E-04   676   0.477E-02    0.322E-01
RMM:  54    -0.257614244841E+03   -0.13565E-02   -0.31121E-04   674   0.448E-02    0.122E-01
RMM:  55    -0.257614738488E+03   -0.49365E-03   -0.11061E-04   674   0.278E-02    0.139E-01
RMM:  56    -0.257616141075E+03   -0.14026E-02   -0.14702E-04   674   0.301E-02    0.223E-01
RMM:  57    -0.257616469766E+03   -0.32869E-03   -0.10721E-04   674   0.270E-02    0.642E-02
RMM:  58    -0.257616869394E+03   -0.39963E-03   -0.45384E-05   671   0.173E-02    0.117E-01
RMM:  59    -0.257617469417E+03   -0.60002E-03   -0.41252E-05   670   0.160E-02    0.698E-02
RMM:  60    -0.257617897990E+03   -0.42857E-03   -0.23999E-05   670   0.127E-02    0.648E-02
RMM:  61    -0.257618237216E+03   -0.33923E-03   -0.29740E-05   670   0.142E-02    0.103E-01
RMM:  62    -0.257618493569E+03   -0.25635E-03   -0.17122E-05   665   0.113E-02    0.879E-02
RMM:  63    -0.257618880075E+03   -0.38651E-03   -0.14376E-05   662   0.908E-03    0.381E-02
RMM:  64    -0.257619110283E+03   -0.23021E-03   -0.91805E-06   634   0.764E-03    0.403E-02
RMM:  65    -0.257619373112E+03   -0.26283E-03   -0.92530E-06   615   0.721E-03    0.483E-02
RMM:  66    -0.257619577954E+03   -0.20484E-03   -0.12487E-05   650   0.861E-03    0.644E-02
RMM:  67    -0.257619807452E+03   -0.22950E-03   -0.10999E-05   607   0.778E-03    0.297E-02
RMM:  68    -0.257619956458E+03   -0.14901E-03   -0.53679E-06   507   0.503E-03    0.324E-02
RMM:  69    -0.257620084228E+03   -0.12777E-03   -0.48778E-06   492   0.495E-03    0.187E-02
RMM:  70    -0.257620168944E+03   -0.84716E-04   -0.31454E-06   437   0.411E-03    0.229E-02
RMM:  71    -0.257620216992E+03   -0.48048E-04   -0.29426E-06   427   0.478E-03    0.344E-02
RMM:  72    -0.257620307602E+03   -0.90611E-04   -0.43195E-06   481   0.433E-03    0.127E-02
RMM:  73    -0.257620341796E+03   -0.34194E-04   -0.11883E-06   380   0.255E-03    0.122E-02
RMM:  74    -0.257620381067E+03   -0.39271E-04   -0.13474E-06   388   0.241E-03    0.948E-03
RMM:  75    -0.257620403200E+03   -0.22133E-04   -0.80577E-07   376   0.209E-03    0.853E-03
RMM:  76    -0.257620430670E+03   -0.27470E-04   -0.92384E-07   379   0.197E-03    0.103E-02
RMM:  77    -0.257620449877E+03   -0.19207E-04   -0.68398E-07   376   0.183E-03    0.735E-03
RMM:  78    -0.257620462907E+03   -0.13030E-04   -0.41247E-07   367   0.142E-03    0.736E-03
RMM:  79    -0.257620489002E+03   -0.26094E-04   -0.88004E-07   382   0.145E-03    0.857E-03
RMM:  80    -0.257620503261E+03   -0.14259E-04   -0.55258E-07   370   0.139E-03    0.474E-03
RMM:  81    -0.257620509698E+03   -0.64376E-05   -0.30961E-07   368   0.132E-03    0.803E-03
RMM:  82    -0.257620518711E+03   -0.90130E-05   -0.38106E-07   371   0.132E-03    0.528E-03
RMM:  83    -0.257620528905E+03   -0.10194E-04   -0.30151E-07   362   0.981E-04    0.317E-03
RMM:  84    -0.257620537806E+03   -0.89012E-05   -0.30653E-07   353   0.862E-04    0.301E-03
RMM:  85    -0.257620543632E+03   -0.58259E-05   -0.19573E-07   335   0.840E-04    0.304E-03
RMM:  86    -0.257620546075E+03   -0.24425E-05   -0.96178E-08   350   0.813E-04    0.355E-03
RMM:  87    -0.257620549648E+03   -0.35739E-05   -0.11765E-07   350   0.672E-04    0.241E-03
RMM:  88    -0.257620552309E+03   -0.26605E-05   -0.52724E-08   236   0.493E-04    0.168E-03
RMM:  89    -0.257620557521E+03   -0.52116E-05   -0.11784E-07   228   0.487E-04    0.156E-03
RMM:  90    -0.257620559001E+03   -0.14801E-05   -0.39855E-08   213   0.470E-04    0.140E-03
RMM:  91    -0.257620555729E+03    0.32719E-05   -0.86840E-08   290   0.564E-04    0.434E-03
RMM:  92    -0.257620562040E+03   -0.63109E-05   -0.13640E-07   292   0.626E-04    0.130E-03
RMM:  93    -0.257620562737E+03   -0.69768E-06   -0.16840E-08   117   0.385E-04
   1 F= -.25762056E+03 E0= -.25735595E+03  d E =-.257621E+03
quench:  g(F)=  0.000E+00 g(S)=  0.000E+00 dE (1.order)= 0.000E+00
 bond charge predicted
       N       E                     dE             d eps       ncg     rms          rms(c)
DAV:   1    -0.257750333890E+03   -0.12977E+00   -0.63423E+00   720   0.417E+00    0.550E-01
RMM:   2    -0.257949881730E+03   -0.19955E+00   -0.20402E-01   676   0.121E+00    0.991E+00
RMM:   3    -0.257819556743E+03    0.13032E+00   -0.51426E-02   685   0.636E-01    0.668E+00
RMM:   4    -0.257769155963E+03    0.50401E-01   -0.22571E-02   677   0.428E-01    0.253E+00
RMM:   5    -0.257768197429E+03    0.95853E-03   -0.11830E-02   676   0.308E-01    0.219E+00
RMM:   6    -0.257774272972E+03   -0.60755E-02   -0.69704E-03   676   0.230E-01    0.340E+00
RMM:   7    -0.257770380461E+03    0.38925E-02   -0.66413E-03   676   0.230E-01    0.268E+00
RMM:   8    -0.257769996070E+03    0.38439E-03   -0.80116E-03   675   0.255E-01    0.283E+00
RMM:   9    -0.257763308434E+03    0.66876E-02   -0.33121E-03   676   0.167E-01    0.193E+00
RMM:  10    -0.257760564031E+03    0.27444E-02   -0.39282E-03   675   0.176E-01    0.917E-01
RMM:  11    -0.257762784112E+03   -0.22201E-02   -0.30610E-03   676   0.152E-01    0.122E+00
RMM:  12    -0.257761677954E+03    0.11062E-02   -0.29981E-03   675   0.158E-01    0.112E+00
RMM:  13    -0.257759862439E+03    0.18155E-02   -0.19104E-03   676   0.130E-01    0.743E-01
RMM:  14    -0.257759690546E+03    0.17189E-03   -0.11631E-03   676   0.971E-02    0.523E-01
RMM:  15    -0.257760237134E+03   -0.54659E-03   -0.11533E-03   676   0.965E-02    0.623E-01
RMM:  16    -0.257759768356E+03    0.46878E-03   -0.63727E-04   676   0.759E-02    0.556E-01
RMM:  17    -0.257759332683E+03    0.43567E-03   -0.41421E-04   676   0.603E-02    0.234E-01
RMM:  18    -0.257759510442E+03   -0.17776E-03   -0.19663E-04   677   0.405E-02    0.241E-01
RMM:  19    -0.257759549732E+03   -0.39290E-04   -0.18838E-04   675   0.392E-02    0.262E-01
RMM:  20    -0.257759464519E+03    0.85213E-04   -0.12411E-04   675   0.342E-02    0.193E-01
RMM:  21    -0.257759447246E+03    0.17272E-04   -0.52646E-05   672   0.218E-02    0.105E-01
RMM:  22    -0.257759479050E+03   -0.31804E-04   -0.29347E-05   671   0.156E-02    0.705E-02
RMM:  23    -0.257759516543E+03   -0.37493E-04   -0.28430E-05   672   0.150E-02    0.107E-01
RMM:  24    -0.257759487281E+03    0.29262E-04   -0.19439E-05   671   0.133E-02    0.684E-02
RMM:  25    -0.257759495772E+03   -0.84907E-05   -0.82820E-06   659   0.854E-03    0.275E-02
RMM:  26    -0.257759510550E+03   -0.14779E-04   -0.50437E-06   557   0.640E-03    0.438E-02
RMM:  27    -0.257759510519E+03    0.31308E-07   -0.39950E-06   477   0.598E-03
   2 F= -.25775951E+03 E0= -.25749438E+03  d E =-.138948E+00
quench:  g(F)=  0.000E+00 g(S)=  0.000E+00 dE (1.order)= 0.000E+00
 bond charge predicted
       N       E                     dE             d eps       ncg     rms          rms(c)
DAV:   1    -0.257858824239E+03   -0.99314E-01   -0.18559E+01   672   0.726E+00    0.102E+00
RMM:   2    -0.258604448230E+03   -0.74562E+00   -0.70948E-01   676   0.233E+00    0.176E+01
RMM:   3    -0.258097322131E+03    0.50713E+00   -0.19605E-01   682   0.128E+00    0.116E+01
RMM:   4    -0.257923484876E+03    0.17384E+00   -0.68554E-02   677   0.731E-01    0.454E+00
RMM:   5    -0.257913058647E+03    0.10426E-01   -0.34766E-02   676   0.524E-01    0.371E+00
RMM:   6    -0.257930933293E+03   -0.17875E-01   -0.20173E-02   676   0.388E-01    0.570E+00
RMM:   7    -0.257918825980E+03    0.12107E-01   -0.19998E-02   676   0.398E-01    0.426E+00
RMM:   8    -0.257917310642E+03    0.15153E-02   -0.22154E-02   675   0.426E-01    0.462E+00
RMM:   9    -0.257900538870E+03    0.16772E-01   -0.90869E-03   676   0.276E-01    0.338E+00
RMM:  10    -0.257890400585E+03    0.10138E-01   -0.10676E-02   676   0.290E-01    0.153E+00
RMM:  11    -0.257896420844E+03   -0.60203E-02   -0.80189E-03   676   0.245E-01    0.210E+00
RMM:  12    -0.257893883021E+03    0.25378E-02   -0.80827E-03   676   0.257E-01    0.190E+00
RMM:  13    -0.257888577454E+03    0.53056E-02   -0.56700E-03   676   0.223E-01    0.125E+00
RMM:  14    -0.257887593501E+03    0.98395E-03   -0.34874E-03   676   0.168E-01    0.912E-01
RMM:  15    -0.257889179569E+03   -0.15861E-02   -0.35481E-03   676   0.169E-01    0.112E+00
RMM:  16    -0.257887810366E+03    0.13692E-02   -0.19636E-03   676   0.133E-01    0.979E-01
RMM:  17    -0.257886234592E+03    0.15758E-02   -0.13165E-03   676   0.108E-01    0.406E-01
RMM:  18    -0.257886530881E+03   -0.29629E-03   -0.64856E-04   676   0.734E-02    0.373E-01
RMM:  19    -0.257886867855E+03   -0.33697E-03   -0.56404E-04   675   0.684E-02    0.550E-01
RMM:  20    -0.257886321970E+03    0.54588E-03   -0.35785E-04   675   0.579E-02    0.321E-01
RMM:  21    -0.257886335797E+03   -0.13827E-04   -0.18092E-04   675   0.401E-02    0.164E-01
RMM:  22    -0.257886394192E+03   -0.58395E-04   -0.84591E-05   676   0.262E-02    0.152E-01
RMM:  23    -0.257886473712E+03   -0.79519E-04   -0.91049E-05   675   0.270E-02    0.210E-01
RMM:  24    -0.257886394742E+03    0.78970E-04   -0.57866E-05   675   0.231E-02    0.145E-01
RMM:  25    -0.257886396011E+03   -0.12691E-05   -0.28005E-05   672   0.155E-02    0.549E-02
RMM:  26    -0.257886433387E+03   -0.37376E-04   -0.17333E-05   670   0.117E-02    0.665E-02
RMM:  27    -0.257886444644E+03   -0.11257E-04   -0.16734E-05   669   0.114E-02    0.730E-02
RMM:  28    -0.257886443755E+03    0.88954E-06   -0.95910E-06   658   0.913E-03
   3 F= -.25788644E+03 E0= -.25762062E+03  d E =-.126933E+00
quench:  g(F)=  0.000E+00 g(S)=  0.000E+00 dE (1.order)= 0.000E+00
 bond charge predicted
       N       E                     dE             d eps       ncg     rms          rms(c)
DAV:   1    -0.257925011907E+03   -0.38567E-01   -0.21859E+01   672   0.843E+00    0.141E+00
RMM:   2    -0.259609543696E+03   -0.16845E+01   -0.10036E+00   676   0.289E+00    0.233E+01
RMM:   3    -0.258228899385E+03    0.13806E+01   -0.44759E-01   676   0.206E+00    0.134E+01
RMM:   4    -0.257995322501E+03    0.23358E+00   -0.95746E-02   677   0.846E-01    0.584E+00
RMM:   5    -0.257949961528E+03    0.45361E-01   -0.48323E-02   675   0.604E-01    0.239E+00
RMM:   6    -0.257998530262E+03   -0.48569E-01   -0.26599E-02   676   0.437E-01    0.673E+00
RMM:   7    -0.257979507655E+03    0.19023E-01   -0.19852E-02   676   0.391E-01    0.545E+00
RMM:   8    -0.257970482731E+03    0.90249E-02   -0.21128E-02   676   0.423E-01    0.480E+00
RMM:   9    -0.257955347231E+03    0.15135E-01   -0.12696E-02   676   0.328E-01    0.393E+00
RMM:  10    -0.257939389253E+03    0.15958E-01   -0.97834E-03   676   0.282E-01    0.163E+00
RMM:  11    -0.257943883789E+03   -0.44945E-02   -0.84597E-03   676   0.256E-01    0.189E+00
RMM:  12    -0.257943538808E+03    0.34498E-03   -0.83448E-03   676   0.257E-01    0.175E+00
RMM:  13    -0.257938396706E+03    0.51421E-02   -0.57554E-03   676   0.225E-01    0.126E+00
RMM:  14    -0.257936507635E+03    0.18891E-02   -0.24395E-03   676   0.143E-01    0.758E-01
RMM:  15    -0.257937896791E+03   -0.13892E-02   -0.24533E-03   675   0.140E-01    0.916E-01
RMM:  16    -0.257936890796E+03    0.10060E-02   -0.18310E-03   676   0.129E-01    0.825E-01
RMM:  17    -0.257935966178E+03    0.92462E-03   -0.92584E-04   675   0.914E-02    0.464E-01
RMM:  18    -0.257936128489E+03   -0.16231E-03   -0.61904E-04   676   0.714E-02    0.380E-01
RMM:  19    -0.257936538364E+03   -0.40988E-03   -0.51239E-04   676   0.643E-02    0.525E-01
RMM:  20    -0.257935958334E+03    0.58003E-03   -0.36505E-04   675   0.578E-02    0.260E-01
RMM:  21    -0.257936022781E+03   -0.64448E-04   -0.15674E-04   676   0.373E-02    0.161E-01
RMM:  22    -0.257936049460E+03   -0.26679E-04   -0.66299E-05   675   0.232E-02    0.146E-01
RMM:  23    -0.257936124117E+03   -0.74657E-04   -0.74387E-05   676   0.243E-02    0.191E-01
RMM:  24    -0.257936041310E+03    0.82808E-04   -0.46807E-05   672   0.211E-02    0.999E-02
RMM:  25    -0.257936074508E+03   -0.33199E-04   -0.15484E-05   667   0.116E-02    0.493E-02
RMM:  26    -0.257936093165E+03   -0.18656E-04   -0.94264E-06   661   0.870E-03    0.664E-02
RMM:  27    -0.257936100697E+03   -0.75323E-05   -0.88997E-06   659   0.856E-03    0.620E-02
RMM:  28    -0.257936099015E+03    0.16818E-05   -0.56482E-06   600   0.731E-03    0.180E-02
RMM:  29    -0.257936110187E+03   -0.11171E-04   -0.20727E-06   376   0.440E-03    0.218E-02
RMM:  30    -0.257936115937E+03   -0.57502E-05   -0.20630E-06   377   0.453E-03    0.197E-02
RMM:  31    -0.257936119637E+03   -0.37007E-05   -0.12085E-06   367   0.376E-03    0.112E-02
RMM:  32    -0.257936121434E+03   -0.17969E-05   -0.48877E-07   357   0.217E-03    0.848E-03
RMM:  33    -0.257936127466E+03   -0.60314E-05   -0.52645E-07   366   0.207E-03    0.122E-02
RMM:  34    -0.257936130935E+03   -0.34692E-05   -0.44575E-07   366   0.206E-03    0.502E-03
RMM:  35    -0.257936133695E+03   -0.27601E-05   -0.21345E-07   353   0.125E-03    0.707E-03
RMM:  36    -0.257936140895E+03   -0.72004E-05   -0.47243E-07   373   0.147E-03    0.731E-03
RMM:  37    -0.257936143801E+03   -0.29059E-05   -0.26932E-07   365   0.144E-03    0.357E-03
RMM:  38    -0.257936146953E+03   -0.31516E-05   -0.21258E-07   363   0.100E-03    0.523E-03
RMM:  39    -0.257936150504E+03   -0.35515E-05   -0.21735E-07   361   0.111E-03    0.285E-03
RMM:  40    -0.257936151687E+03   -0.11826E-05   -0.88222E-08   330   0.728E-04    0.265E-03
RMM:  41    -0.257936156752E+03   -0.50654E-05   -0.30205E-07   362   0.815E-04    0.412E-03
RMM:  42    -0.257936158405E+03   -0.16522E-05   -0.13531E-07   344   0.875E-04    0.156E-03
RMM:  43    -0.257936159613E+03   -0.12080E-05   -0.72946E-08   290   0.589E-04    0.258E-03
RMM:  44    -0.257936162360E+03   -0.27470E-05   -0.19242E-07   318   0.653E-04    0.224E-03
RMM:  45    -0.257936162817E+03   -0.45747E-06   -0.44720E-08   260   0.547E-04
   4 F= -.25793616E+03 E0= -.25767054E+03  d E =-.497191E-01
quench:  g(F)=  0.000E+00 g(S)=  0.000E+00 dE (1.order)= 0.000E+00
 bond charge predicted
       N       E                     dE             d eps       ncg     rms          rms(c)
DAV:   1    -0.257949173193E+03   -0.13011E-01   -0.34519E+00   672   0.328E+00    0.543E-01
RMM:   2    -0.258238814548E+03   -0.28964E+00   -0.16836E-01   676   0.112E+00    0.117E+01
RMM:   3    -0.258032295506E+03    0.20652E+00   -0.57896E-02   680   0.724E-01    0.771E+00
RMM:   4    -0.257960152543E+03    0.72143E-01   -0.28718E-02   677   0.482E-01    0.228E+00
RMM:   5    -0.257963669105E+03   -0.35166E-02   -0.11415E-02   676   0.298E-01    0.265E+00
RMM:   6    -0.257963004330E+03    0.66478E-03   -0.57636E-03   676   0.209E-01    0.265E+00
RMM:   7    -0.257966198113E+03   -0.31938E-02   -0.71135E-03   676   0.237E-01    0.265E+00
RMM:   8    -0.257963842614E+03    0.23555E-02   -0.57947E-03   676   0.224E-01    0.290E+00
RMM:   9    -0.257954899937E+03    0.89427E-02   -0.28644E-03   676   0.158E-01    0.128E+00
RMM:  10    -0.257954046469E+03    0.85347E-03   -0.25503E-03   675   0.144E-01    0.665E-01
RMM:  11    -0.257955218312E+03   -0.11718E-02   -0.16566E-03   676   0.111E-01    0.868E-01
RMM:  12    -0.257954530359E+03    0.68795E-03   -0.14343E-03   675   0.109E-01    0.752E-01
RMM:  13    -0.257953502719E+03    0.10276E-02   -0.89546E-04   676   0.909E-02    0.417E-01
RMM:  14    -0.257953609568E+03   -0.10685E-03   -0.35153E-04   676   0.540E-02    0.308E-01
RMM:  15    -0.257953939380E+03   -0.32981E-03   -0.43925E-04   676   0.578E-02    0.412E-01
RMM:  16    -0.257953713855E+03    0.22552E-03   -0.29566E-04   676   0.511E-02    0.373E-01
RMM:  17    -0.257953517998E+03    0.19586E-03   -0.16002E-04   676   0.379E-02    0.147E-01
RMM:  18    -0.257953621931E+03   -0.10393E-03   -0.73322E-05   676   0.248E-02    0.142E-01
RMM:  19    -0.257953650803E+03   -0.28872E-04   -0.65041E-05   674   0.230E-02    0.161E-01
RMM:  20    -0.257953632053E+03    0.18750E-04   -0.45234E-05   671   0.202E-02    0.132E-01
RMM:  21    -0.257953623223E+03    0.88298E-05   -0.26547E-05   671   0.154E-02    0.736E-02
RMM:  22    -0.257953645017E+03   -0.21793E-04   -0.14071E-05   666   0.108E-02    0.554E-02
RMM:  23    -0.257953655907E+03   -0.10890E-04   -0.12237E-05   666   0.101E-02    0.587E-02
RMM:  24    -0.257953651120E+03    0.47862E-05   -0.76449E-06   645   0.848E-03    0.370E-02
RMM:  25    -0.257953655004E+03   -0.38837E-05   -0.27950E-06   402   0.513E-03    0.297E-02
RMM:  26    -0.257953661480E+03   -0.64759E-05   -0.31142E-06   413   0.531E-03    0.420E-02
RMM:  27    -0.257953660050E+03    0.14305E-05   -0.26818E-06   394   0.543E-03    0.301E-02
RMM:  28    -0.257953661433E+03   -0.13830E-05   -0.12136E-06   365   0.373E-03    0.137E-02
RMM:  29    -0.257953663184E+03   -0.17519E-05   -0.58778E-07   353   0.239E-03    0.123E-02
RMM:  30    -0.257953664858E+03   -0.16736E-05   -0.56455E-07   353   0.234E-03    0.121E-02
RMM:  31    -0.257953665791E+03   -0.93295E-06   -0.39152E-07   353   0.216E-03
   5 F= -.25795367E+03 E0= -.25768918E+03  d E =-.175030E-01
quench:  g(F)=  0.000E+00 g(S)=  0.000E+00 dE (1.order)= 0.000E+00
 bond charge predicted
       N       E                     dE             d eps       ncg     rms          rms(c)
DAV:   1    -0.257967435864E+03   -0.13771E-01   -0.35172E+00   672   0.338E+00    0.552E-01
RMM:   2    -0.258287719082E+03   -0.32028E+00   -0.13884E-01   676   0.106E+00    0.120E+01
RMM:   3    -0.258051919485E+03    0.23580E+00   -0.60568E-02   676   0.764E-01    0.797E+00
RMM:   4    -0.257972990453E+03    0.78929E-01   -0.28923E-02   676   0.488E-01    0.216E+00
RMM:   5    -0.257975747426E+03   -0.27570E-02   -0.11081E-02   676   0.296E-01    0.231E+00
RMM:   6    -0.257977535251E+03   -0.17878E-02   -0.47676E-03   676   0.190E-01    0.276E+00
RMM:   7    -0.257980053714E+03   -0.25185E-02   -0.69593E-03   675   0.233E-01    0.261E+00
RMM:   8    -0.257974590949E+03    0.54628E-02   -0.51657E-03   676   0.213E-01    0.230E+00
RMM:   9    -0.257969890179E+03    0.47008E-02   -0.24076E-03   676   0.145E-01    0.139E+00
RMM:  10    -0.257967955099E+03    0.19351E-02   -0.20892E-03   676   0.131E-01    0.608E-01
RMM:  11    -0.257968763181E+03   -0.80808E-03   -0.12386E-03   676   0.975E-02    0.678E-01
RMM:  12    -0.257968686438E+03    0.76743E-04   -0.11022E-03   675   0.955E-02    0.669E-01
RMM:  13    -0.257967750451E+03    0.93599E-03   -0.68398E-04   675   0.805E-02    0.337E-01
RMM:  14    -0.257967916511E+03   -0.16606E-03   -0.21768E-04   675   0.426E-02    0.260E-01
RMM:  15    -0.257968117069E+03   -0.20056E-03   -0.30193E-04   676   0.484E-02    0.307E-01
RMM:  16    -0.257967922063E+03    0.19501E-03   -0.20183E-04   676   0.428E-02    0.238E-01
RMM:  17    -0.257967913402E+03    0.86609E-05   -0.93088E-05   676   0.289E-02    0.141E-01
RMM:  18    -0.257967952431E+03   -0.39029E-04   -0.55844E-05   673   0.213E-02    0.146E-01
RMM:  19    -0.257967977553E+03   -0.25122E-04   -0.49094E-05   674   0.199E-02    0.152E-01
RMM:  20    -0.257967949524E+03    0.28029E-04   -0.38653E-05   672   0.187E-02    0.981E-02
RMM:  21    -0.257967963090E+03   -0.13566E-04   -0.16946E-05   667   0.124E-02    0.650E-02
RMM:  22    -0.257967979036E+03   -0.15946E-04   -0.88295E-06   644   0.853E-03    0.624E-02
RMM:  23    -0.257967984392E+03   -0.53556E-05   -0.88088E-06   661   0.867E-03    0.601E-02
RMM:  24    -0.257967978647E+03    0.57441E-05   -0.54207E-06   584   0.732E-03    0.355E-02
RMM:  25    -0.257967987763E+03   -0.91151E-05   -0.18650E-06   376   0.436E-03    0.275E-02
RMM:  26    -0.257967993191E+03   -0.54286E-05   -0.20503E-06   373   0.442E-03    0.357E-02
RMM:  27    -0.257967994805E+03   -0.16143E-05   -0.16601E-06   368   0.436E-03    0.295E-02
RMM:  28    -0.257967996468E+03   -0.16621E-05   -0.87850E-07   364   0.321E-03    0.171E-02
RMM:  29    -0.257967998409E+03   -0.19419E-05   -0.41352E-07   352   0.207E-03    0.140E-02
RMM:  30    -0.257968000423E+03   -0.20140E-05   -0.41633E-07   352   0.197E-03    0.143E-02
RMM:  31    -0.257968002390E+03   -0.19667E-05   -0.34202E-07   359   0.200E-03    0.871E-03
RMM:  32    -0.257968003003E+03   -0.61252E-06   -0.12913E-07   347   0.118E-03
   6 F= -.25796800E+03 E0= -.25770421E+03  d E =-.143372E-01
quench:  g(F)=  0.000E+00 g(S)=  0.000E+00 dE (1.order)= 0.000E+00
 bond charge predicted
       N       E                     dE             d eps       ncg     rms          rms(c)
DAV:   1    -0.257982773304E+03   -0.14771E-01   -0.42731E+00   672   0.372E+00    0.584E-01
RMM:   2    -0.258349936127E+03   -0.36716E+00   -0.16094E-01   676   0.114E+00    0.130E+01
RMM:   3    -0.258079809285E+03    0.27013E+00   -0.65371E-02   677   0.788E-01    0.827E+00
RMM:   4    -0.257991699892E+03    0.88109E-01   -0.34679E-02   676   0.535E-01    0.243E+00
RMM:   5    -0.257995283606E+03   -0.35837E-02   -0.12091E-02   676   0.309E-01    0.288E+00
RMM:   6    -0.257993340152E+03    0.19435E-02   -0.62122E-03   676   0.217E-01    0.266E+00
RMM:   7    -0.257997572812E+03   -0.42327E-02   -0.83727E-03   675   0.254E-01    0.265E+00
RMM:   8    -0.257995740331E+03    0.18325E-02   -0.62003E-03   676   0.232E-01    0.301E+00
RMM:   9    -0.257986124902E+03    0.96154E-02   -0.32653E-03   676   0.169E-01    0.144E+00
RMM:  10    -0.257984233665E+03    0.18912E-02   -0.27478E-03   676   0.151E-01    0.643E-01
RMM:  11    -0.257985128888E+03   -0.89522E-03   -0.14981E-03   676   0.107E-01    0.744E-01
RMM:  12    -0.257985172406E+03   -0.43518E-04   -0.14081E-03   675   0.107E-01    0.769E-01
RMM:  13    -0.257983825634E+03    0.13468E-02   -0.90968E-04   675   0.930E-02    0.347E-01
RMM:  14    -0.257984086444E+03   -0.26081E-03   -0.26726E-04   675   0.473E-02    0.293E-01
RMM:  15    -0.257984326631E+03   -0.24019E-03   -0.38004E-04   676   0.542E-02    0.356E-01
RMM:  16    -0.257984060687E+03    0.26594E-03   -0.25410E-04   676   0.480E-02    0.261E-01
RMM:  17    -0.257984047700E+03    0.12987E-04   -0.10935E-04   676   0.315E-02    0.153E-01
RMM:  18    -0.257984081857E+03   -0.34157E-04   -0.56287E-05   673   0.215E-02    0.134E-01
RMM:  19    -0.257984126490E+03   -0.44634E-04   -0.53406E-05   674   0.206E-02    0.151E-01
RMM:  20    -0.257984098571E+03    0.27919E-04   -0.40274E-05   671   0.189E-02    0.106E-01
RMM:  21    -0.257984103122E+03   -0.45514E-05   -0.21418E-05   669   0.139E-02    0.567E-02
RMM:  22    -0.257984120328E+03   -0.17206E-04   -0.83442E-06   645   0.834E-03    0.612E-02
RMM:  23    -0.257984126607E+03   -0.62786E-05   -0.87404E-06   657   0.852E-03    0.645E-02
RMM:  24    -0.257984122893E+03    0.37136E-05   -0.59449E-06   618   0.753E-03    0.387E-02
RMM:  25    -0.257984129409E+03   -0.65165E-05   -0.22223E-06   379   0.467E-03    0.289E-02
RMM:  26    -0.257984134992E+03   -0.55824E-05   -0.22976E-06   378   0.467E-03    0.364E-02
RMM:  27    -0.257984135297E+03   -0.30476E-06   -0.19168E-06   367   0.462E-03
   7 F= -.25798414E+03 E0= -.25772106E+03  d E =-.161323E-01
quench:  g(F)=  0.000E+00 g(S)=  0.000E+00 dE (1.order)= 0.000E+00
 bond charge predicted
       N       E                     dE             d eps       ncg     rms          rms(c)
DAV:   1    -0.257997836480E+03   -0.13701E-01   -0.46715E+00   672   0.391E+00    0.564E-01
RMM:   2    -0.258372081881E+03   -0.37425E+00   -0.14805E-01   675   0.109E+00    0.135E+01
RMM:   3    -0.258080282138E+03    0.29180E+00   -0.59011E-02   675   0.745E-01    0.748E+00
RMM:   4    -0.258007956360E+03    0.72326E-01   -0.34574E-02   676   0.538E-01    0.252E+00
RMM:   5    -0.258011270571E+03   -0.33142E-02   -0.10310E-02   676   0.285E-01    0.309E+00
RMM:   6    -0.258008612964E+03    0.26576E-02   -0.76782E-03   676   0.241E-01    0.252E+00
RMM:   7    -0.258013821933E+03   -0.52090E-02   -0.87835E-03   676   0.261E-01    0.272E+00
RMM:   8    -0.258011883266E+03    0.19387E-02   -0.60665E-03   676   0.233E-01    0.319E+00
RMM:   9    -0.258000160138E+03    0.11723E-01   -0.33858E-03   676   0.172E-01    0.114E+00
RMM:  10    -0.257999707557E+03    0.45258E-03   -0.24508E-03   676   0.143E-01    0.612E-01
RMM:  11    -0.258000685700E+03   -0.97814E-03   -0.16285E-03   676   0.112E-01    0.813E-01
RMM:  12    -0.258000650247E+03    0.35453E-04   -0.14906E-03   675   0.111E-01    0.850E-01
RMM:  13    -0.257999156604E+03    0.14936E-02   -0.10011E-03   676   0.965E-02    0.378E-01
RMM:  14    -0.257999385048E+03   -0.22844E-03   -0.33647E-04   676   0.534E-02    0.315E-01
RMM:  15    -0.257999653537E+03   -0.26849E-03   -0.41940E-04   676   0.579E-02    0.385E-01
RMM:  16    -0.257999364162E+03    0.28937E-03   -0.27937E-04   676   0.510E-02    0.290E-01
RMM:  17    -0.257999334097E+03    0.30065E-04   -0.12152E-04   676   0.328E-02    0.172E-01
RMM:  18    -0.257999413782E+03   -0.79685E-04   -0.94685E-05   676   0.277E-02    0.153E-01
RMM:  19    -0.257999450469E+03   -0.36687E-04   -0.74067E-05   674   0.251E-02    0.180E-01
RMM:  20    -0.257999396906E+03    0.53563E-04   -0.39174E-05   672   0.191E-02    0.114E-01
RMM:  21    -0.257999410943E+03   -0.14037E-04   -0.24371E-05   671   0.146E-02    0.624E-02
RMM:  22    -0.257999438567E+03   -0.27624E-04   -0.14243E-05   669   0.108E-02    0.799E-02
RMM:  23    -0.257999434514E+03    0.40530E-05   -0.11752E-05   661   0.101E-02    0.760E-02
RMM:  24    -0.257999434779E+03   -0.26445E-06   -0.78714E-06   654   0.860E-03
   8 F= -.25799943E+03 E0= -.25773705E+03  d E =-.152995E-01
quench:  g(F)=  0.000E+00 g(S)=  0.000E+00 dE (1.order)= 0.000E+00
 bond charge predicted
       N       E                     dE             d eps       ncg     rms          rms(c)
DAV:   1    -0.258007464197E+03   -0.80297E-02   -0.32317E+00   672   0.324E+00    0.424E-01
RMM:   2    -0.258239812014E+03   -0.23235E+00   -0.98472E-02   676   0.868E-01    0.116E+01
RMM:   3    -0.258046208263E+03    0.19360E+00   -0.33844E-02   681   0.547E-01    0.516E+00
RMM:   4    -0.258016908837E+03    0.29299E-01   -0.20874E-02   677   0.422E-01    0.218E+00
RMM:   5    -0.258018814347E+03   -0.19055E-02   -0.65664E-03   676   0.227E-01    0.270E+00
RMM:   6    -0.258016494325E+03    0.23200E-02   -0.58435E-03   676   0.211E-01    0.205E+00
RMM:   7    -0.258018879060E+03   -0.23847E-02   -0.62654E-03   676   0.223E-01    0.207E+00
RMM:   8    -0.258016320771E+03    0.25583E-02   -0.45596E-03   676   0.201E-01    0.227E+00
RMM:   9    -0.258010528941E+03    0.57918E-02   -0.18134E-03   676   0.125E-01    0.934E-01
RMM:  10    -0.258010346142E+03    0.18280E-03   -0.14640E-03   676   0.110E-01    0.515E-01
RMM:  11    -0.258011499531E+03   -0.11534E-02   -0.11562E-03   676   0.931E-02    0.808E-01
RMM:  12    -0.258010994696E+03    0.50483E-03   -0.10836E-03   676   0.944E-02    0.718E-01
RMM:  13    -0.258009990892E+03    0.10038E-02   -0.75589E-04   676   0.826E-02    0.293E-01
RMM:  14    -0.258010235964E+03   -0.24507E-03   -0.27763E-04   676   0.480E-02    0.308E-01
RMM:  15    -0.258010430924E+03   -0.19496E-03   -0.30445E-04   676   0.490E-02    0.381E-01
RMM:  16    -0.258010211090E+03    0.21983E-03   -0.22534E-04   676   0.450E-02    0.289E-01
RMM:  17    -0.258010141148E+03    0.69942E-04   -0.13036E-04   676   0.342E-02    0.144E-01
RMM:  18    -0.258010208420E+03   -0.67272E-04   -0.61602E-05   675   0.228E-02    0.125E-01
RMM:  19    -0.258010227789E+03   -0.19369E-04   -0.50408E-05   672   0.202E-02    0.137E-01
RMM:  20    -0.258010214176E+03    0.13613E-04   -0.36553E-05   672   0.183E-02    0.103E-01
RMM:  21    -0.258010209825E+03    0.43502E-05   -0.17487E-05   669   0.126E-02    0.545E-02
RMM:  22    -0.258010229935E+03   -0.20109E-04   -0.95195E-06   657   0.888E-03    0.455E-02
RMM:  23    -0.258010233136E+03   -0.32009E-05   -0.83273E-06   655   0.838E-03    0.510E-02
RMM:  24    -0.258010234248E+03   -0.11118E-05   -0.44233E-06   522   0.661E-03    0.376E-02
RMM:  25    -0.258010232872E+03    0.13756E-05   -0.19940E-06   376   0.443E-03    0.220E-02
RMM:  26    -0.258010239650E+03   -0.67779E-05   -0.23930E-06   372   0.472E-03    0.267E-02
RMM:  27    -0.258010238125E+03    0.15244E-05   -0.19023E-06   365   0.469E-03    0.176E-02
RMM:  28    -0.258010240131E+03   -0.20058E-05   -0.77617E-07   360   0.300E-03    0.958E-03
RMM:  29    -0.258010240633E+03   -0.50217E-06   -0.31903E-07   352   0.175E-03
   9 F= -.25801024E+03 E0= -.25774821E+03  d E =-.108059E-01
quench:  g(F)=  0.000E+00 g(S)=  0.000E+00 dE (1.order)= 0.000E+00
 bond charge predicted
       N       E                     dE             d eps       ncg     rms          rms(c)
DAV:   1    -0.258013158161E+03   -0.29180E-02   -0.38234E-01   672   0.110E+00    0.134E-01
RMM:   2    -0.258035841144E+03   -0.22683E-01   -0.11226E-02   676   0.288E-01    0.388E+00
RMM:   3    -0.258014558559E+03    0.21283E-01   -0.36240E-03   686   0.176E-01    0.152E+00
RMM:   4    -0.258013716023E+03    0.84254E-03   -0.20795E-03   677   0.135E-01    0.602E-01
RMM:   5    -0.258014210234E+03   -0.49421E-03   -0.83049E-04   676   0.807E-02    0.774E-01
RMM:   6    -0.258014735396E+03   -0.52516E-03   -0.51452E-04   676   0.631E-02    0.103E+00
RMM:   7    -0.258014160295E+03    0.57510E-03   -0.66984E-04   676   0.748E-02    0.758E-01
RMM:   8    -0.258013848873E+03    0.31142E-03   -0.33878E-04   676   0.557E-02    0.651E-01
RMM:   9    -0.258013419107E+03    0.42977E-03   -0.21866E-04   676   0.426E-02    0.240E-01
RMM:  10    -0.258013732011E+03   -0.31290E-03   -0.20647E-04   676   0.398E-02    0.286E-01
RMM:  11    -0.258013752332E+03   -0.20320E-04   -0.18817E-04   676   0.386E-02    0.330E-01
RMM:  12    -0.258013552050E+03    0.20028E-03   -0.14449E-04   675   0.359E-02    0.173E-01
RMM:  13    -0.258013582900E+03   -0.30850E-04   -0.72370E-05   674   0.248E-02    0.110E-01
RMM:  14    -0.258013636914E+03   -0.54014E-04   -0.51976E-05   674   0.203E-02    0.153E-01
RMM:  15    -0.258013610436E+03    0.26477E-04   -0.42710E-05   672   0.194E-02    0.138E-01
RMM:  16    -0.258013597719E+03    0.12717E-04   -0.22249E-05   670   0.142E-02    0.692E-02
RMM:  17    -0.258013613154E+03   -0.15435E-04   -0.13897E-05   671   0.108E-02    0.515E-02
RMM:  18    -0.258013624710E+03   -0.11556E-04   -0.12186E-05   667   0.101E-02    0.627E-02
RMM:  19    -0.258013618282E+03    0.64277E-05   -0.67649E-06   633   0.797E-03    0.482E-02
RMM:  20    -0.258013618822E+03   -0.54047E-06   -0.37246E-06   456   0.595E-03
  10 F= -.25801362E+03 E0= -.25775170E+03  d E =-.337819E-02
quench:  g(F)=  0.000E+00 g(S)=  0.000E+00 dE (1.order)= 0.000E+00
 bond charge predicted
       N       E                     dE             d eps       ncg     rms          rms(c)
DAV:   1    -0.258016822001E+03   -0.32037E-02   -0.29048E-01   672   0.976E-01    0.127E-01
RMM:   2    -0.258045660489E+03   -0.28838E-01   -0.75177E-03   676   0.243E-01    0.452E+00
RMM:   3    -0.258017390139E+03    0.28270E-01   -0.35643E-03   678   0.181E-01    0.143E+00
RMM:   4    -0.258017003895E+03    0.38624E-03   -0.21452E-03   676   0.138E-01    0.576E-01
RMM:   5    -0.258017804224E+03   -0.80033E-03   -0.84295E-04   676   0.819E-02    0.919E-01
RMM:   6    -0.258017834874E+03   -0.30650E-04   -0.54725E-04   676   0.647E-02    0.952E-01
RMM:   7    -0.258017455182E+03    0.37969E-03   -0.74473E-04   676   0.785E-02    0.680E-01
RMM:   8    -0.258017244199E+03    0.21098E-03   -0.39277E-04   676   0.601E-02    0.665E-01
RMM:   9    -0.258016801061E+03    0.44314E-03   -0.19659E-04   676   0.410E-02    0.268E-01
RMM:  10    -0.258016918687E+03   -0.11763E-03   -0.14027E-04   676   0.337E-02    0.161E-01
RMM:  11    -0.258017047069E+03   -0.12838E-03   -0.11916E-04   676   0.302E-02    0.260E-01
RMM:  12    -0.258016968129E+03    0.78940E-04   -0.10660E-04   676   0.299E-02    0.229E-01
RMM:  13    -0.258016892760E+03    0.75369E-04   -0.73182E-05   675   0.259E-02    0.819E-02
RMM:  14    -0.258016940016E+03   -0.47256E-04   -0.24974E-05   671   0.146E-02    0.729E-02
RMM:  15    -0.258016962325E+03   -0.22309E-04   -0.21692E-05   671   0.131E-02    0.108E-01
RMM:  16    -0.258016956128E+03    0.61964E-05   -0.19365E-05   670   0.128E-02    0.102E-01
RMM:  17    -0.258016944318E+03    0.11810E-04   -0.14552E-05   668   0.115E-02    0.487E-02
RMM:  18    -0.258016954194E+03   -0.98760E-05   -0.58916E-06   582   0.721E-03    0.246E-02
RMM:  19    -0.258016959177E+03   -0.49831E-05   -0.32145E-06   423   0.543E-03    0.333E-02
RMM:  20    -0.258016960389E+03   -0.12118E-05   -0.27037E-06   400   0.536E-03    0.433E-02
RMM:  21    -0.258016956485E+03    0.39036E-05   -0.17659E-06   376   0.463E-03    0.139E-02
RMM:  22    -0.258016961307E+03   -0.48220E-05   -0.63195E-07   360   0.261E-03    0.112E-02
RMM:  23    -0.258016961735E+03   -0.42813E-06   -0.49500E-07   349   0.220E-03
  11 F= -.25801696E+03 E0= -.25775516E+03  d E =-.334291E-02
quench:  g(F)=  0.000E+00 g(S)=  0.000E+00 dE (1.order)= 0.000E+00
 bond charge predicted
       N       E                     dE             d eps       ncg     rms          rms(c)
DAV:   1    -0.258020467836E+03   -0.35065E-02   -0.43211E-01   672   0.119E+00    0.151E-01
RMM:   2    -0.258062949764E+03   -0.42482E-01   -0.10603E-02   676   0.291E-01    0.547E+00
RMM:   3    -0.258021548502E+03    0.41401E-01   -0.51648E-03   678   0.219E-01    0.167E+00
RMM:   4    -0.258020890249E+03    0.65825E-03   -0.29970E-03   676   0.164E-01    0.688E-01
RMM:   5    -0.258022009007E+03   -0.11188E-02   -0.11291E-03   676   0.950E-02    0.116E+00
RMM:   6    -0.258021848861E+03    0.16015E-03   -0.82236E-04   676   0.794E-02    0.108E+00
RMM:   7    -0.258021370901E+03    0.47796E-03   -0.10526E-03   676   0.939E-02    0.766E-01
RMM:   8    -0.258020996443E+03    0.37446E-03   -0.53862E-04   676   0.703E-02    0.731E-01
RMM:   9    -0.258020480495E+03    0.51595E-03   -0.24253E-04   676   0.453E-02    0.312E-01
RMM:  10    -0.258020605626E+03   -0.12513E-03   -0.18526E-04   676   0.385E-02    0.198E-01
RMM:  11    -0.258020792321E+03   -0.18670E-03   -0.16416E-04   676   0.354E-02    0.320E-01
RMM:  12    -0.258020627275E+03    0.16505E-03   -0.14251E-04   675   0.350E-02    0.231E-01
RMM:  13    -0.258020570610E+03    0.56665E-04   -0.87639E-05   676   0.283E-02    0.899E-02
RMM:  14    -0.258020622185E+03   -0.51575E-04   -0.32066E-05   671   0.164E-02    0.919E-02
RMM:  15    -0.258020651688E+03   -0.29503E-04   -0.32855E-05   673   0.161E-02    0.134E-01
RMM:  16    -0.258020632206E+03    0.19482E-04   -0.25542E-05   671   0.150E-02    0.115E-01
RMM:  17    -0.258020619753E+03    0.12453E-04   -0.18362E-05   669   0.129E-02    0.526E-02
RMM:  18    -0.258020634609E+03   -0.14856E-04   -0.81039E-06   643   0.835E-03    0.305E-02
RMM:  19    -0.258020640653E+03   -0.60448E-05   -0.51638E-06   555   0.660E-03    0.430E-02
RMM:  20    -0.258020638741E+03    0.19122E-05   -0.38688E-06   478   0.627E-03    0.406E-02
RMM:  21    -0.258020638117E+03    0.62389E-06   -0.20988E-06   382   0.491E-03
  12 F= -.25802064E+03 E0= -.25775896E+03  d E =-.367638E-02
quench:  g(F)=  0.000E+00 g(S)=  0.000E+00 dE (1.order)= 0.000E+00
 bond charge predicted
       N       E                     dE             d eps       ncg     rms          rms(c)
DAV:   1    -0.258024307165E+03   -0.36684E-02   -0.58083E-01   672   0.138E+00    0.178E-01
RMM:   2    -0.258087515821E+03   -0.63209E-01   -0.14282E-02   676   0.339E-01    0.668E+00
RMM:   3    -0.258025735097E+03    0.61781E-01   -0.74365E-03   678   0.263E-01    0.190E+00
RMM:   4    -0.258025059815E+03    0.67528E-03   -0.41159E-03   676   0.193E-01    0.806E-01
RMM:   5    -0.258026620018E+03   -0.15602E-02   -0.15209E-03   676   0.111E-01    0.141E+00
RMM:   6    -0.258026372097E+03    0.24792E-03   -0.12268E-03   676   0.970E-02    0.128E+00
RMM:   7    -0.258025487094E+03    0.88500E-03   -0.14590E-03   676   0.111E-01    0.900E-01
RMM:   8    -0.258024942240E+03    0.54485E-03   -0.65926E-04   676   0.780E-02    0.808E-01
RMM:   9    -0.258024331989E+03    0.61025E-03   -0.32580E-04   676   0.524E-02    0.338E-01
RMM:  10    -0.258024489637E+03   -0.15765E-03   -0.24103E-04   676   0.437E-02    0.242E-01
RMM:  11    -0.258024720664E+03   -0.23103E-03   -0.22637E-04   676   0.415E-02    0.374E-01
RMM:  12    -0.258024473204E+03    0.24746E-03   -0.18915E-04   675   0.406E-02    0.244E-01
RMM:  13    -0.258024425495E+03    0.47709E-04   -0.10725E-04   676   0.312E-02    0.102E-01
RMM:  14    -0.258024482252E+03   -0.56758E-04   -0.41500E-05   672   0.186E-02    0.107E-01
RMM:  15    -0.258024522689E+03   -0.40436E-04   -0.44079E-05   675   0.187E-02    0.160E-01
RMM:  16    -0.258024484396E+03    0.38293E-04   -0.32971E-05   672   0.172E-02    0.125E-01
RMM:  17    -0.258024476425E+03    0.79706E-05   -0.21871E-05   670   0.140E-02    0.578E-02
RMM:  18    -0.258024495168E+03   -0.18742E-04   -0.10257E-05   663   0.933E-03    0.393E-02
RMM:  19    -0.258024502101E+03   -0.69338E-05   -0.74639E-06   632   0.780E-03    0.524E-02
RMM:  20    -0.258024499467E+03    0.26349E-05   -0.54904E-06   593   0.720E-03    0.451E-02
RMM:  21    -0.258024500031E+03   -0.56412E-06   -0.26753E-06   400   0.532E-03
  13 F= -.25802450E+03 E0= -.25776296E+03  d E =-.386191E-02
quench:  g(F)=  0.000E+00 g(S)=  0.000E+00 dE (1.order)= 0.000E+00
 bond charge predicted
       N       E                     dE             d eps       ncg     rms          rms(c)
DAV:   1    -0.258028343102E+03   -0.38436E-02   -0.71875E-01   672   0.154E+00    0.200E-01
RMM:   2    -0.258112806022E+03   -0.84463E-01   -0.17891E-02   676   0.380E-01    0.771E+00
RMM:   3    -0.258030074705E+03    0.82731E-01   -0.96360E-03   677   0.300E-01    0.206E+00
RMM:   4    -0.258029535461E+03    0.53924E-03   -0.51103E-03   676   0.215E-01    0.937E-01
RMM:   5    -0.258031419913E+03   -0.18845E-02   -0.17750E-03   676   0.120E-01    0.164E+00
RMM:   6    -0.258030907787E+03    0.51213E-03   -0.17503E-03   676   0.116E-01    0.136E+00
RMM:   7    -0.258029667085E+03    0.12407E-02   -0.18332E-03   676   0.126E-01    0.934E-01
RMM:   8    -0.258028952493E+03    0.71459E-03   -0.78160E-04   676   0.850E-02    0.795E-01
RMM:   9    -0.258028436609E+03    0.51588E-03   -0.33434E-04   676   0.531E-02    0.368E-01
RMM:  10    -0.258028582969E+03   -0.14636E-03   -0.26815E-04   676   0.460E-02    0.275E-01
RMM:  11    -0.258028829226E+03   -0.24626E-03   -0.26754E-04   675   0.452E-02    0.397E-01
RMM:  12    -0.258028538159E+03    0.29107E-03   -0.22156E-04   675   0.440E-02    0.247E-01
RMM:  13    -0.258028497205E+03    0.40954E-04   -0.11871E-04   676   0.327E-02    0.105E-01
RMM:  14    -0.258028559675E+03   -0.62471E-04   -0.49468E-05   673   0.202E-02    0.119E-01
RMM:  15    -0.258028606382E+03   -0.46707E-04   -0.51618E-05   675   0.202E-02    0.183E-01
RMM:  16    -0.258028547413E+03    0.58970E-04   -0.39556E-05   672   0.189E-02    0.126E-01
RMM:  17    -0.258028549101E+03   -0.16880E-05   -0.24349E-05   670   0.148E-02    0.585E-02
RMM:  18    -0.258028569648E+03   -0.20547E-04   -0.11400E-05   664   0.979E-03    0.449E-02
RMM:  19    -0.258028577046E+03   -0.73980E-05   -0.87362E-06   652   0.846E-03    0.612E-02
RMM:  20    -0.258028572940E+03    0.41052E-05   -0.63038E-06   625   0.764E-03    0.518E-02
RMM:  21    -0.258028573041E+03   -0.10066E-06   -0.34447E-06   438   0.592E-03
  14 F= -.25802857E+03 E0= -.25776718E+03  d E =-.407301E-02
quench:  g(F)=  0.000E+00 g(S)=  0.000E+00 dE (1.order)= 0.000E+00
 bond charge predicted
       N       E                     dE             d eps       ncg     rms          rms(c)
DAV:   1    -0.258032554130E+03   -0.39812E-02   -0.84341E-01   672   0.167E+00    0.222E-01
RMM:   2    -0.258143146079E+03   -0.11059E+00   -0.21831E-02   675   0.419E-01    0.878E+00
RMM:   3    -0.258034668107E+03    0.10848E+00   -0.12333E-02   676   0.341E-01    0.221E+00
RMM:   4    -0.258034062485E+03    0.60562E-03   -0.61831E-03   676   0.237E-01    0.982E-01
RMM:   5    -0.258036895102E+03   -0.28326E-02   -0.22547E-03   676   0.136E-01    0.192E+00
RMM:   6    -0.258036049932E+03    0.84517E-03   -0.22239E-03   676   0.131E-01    0.158E+00
RMM:   7    -0.258033822210E+03    0.22277E-02   -0.22585E-03   676   0.141E-01    0.953E-01
RMM:   8    -0.258033080069E+03    0.74214E-03   -0.84803E-04   676   0.885E-02    0.755E-01
RMM:   9    -0.258032721713E+03    0.35836E-03   -0.34068E-04   676   0.535E-02    0.389E-01
RMM:  10    -0.258032897020E+03   -0.17531E-03   -0.32103E-04   676   0.500E-02    0.336E-01
RMM:  11    -0.258033140003E+03   -0.24298E-03   -0.33443E-04   675   0.509E-02    0.443E-01
RMM:  12    -0.258032734765E+03    0.40524E-03   -0.26220E-04   675   0.484E-02    0.231E-01
RMM:  13    -0.258032747499E+03   -0.12734E-04   -0.12120E-04   676   0.327E-02    0.110E-01
RMM:  14    -0.258032818219E+03   -0.70721E-04   -0.59872E-05   673   0.220E-02    0.148E-01
RMM:  15    -0.258032850766E+03   -0.32546E-04   -0.61761E-05   676   0.223E-02    0.199E-01
RMM:  16    -0.258032778385E+03    0.72381E-04   -0.47451E-05   674   0.209E-02    0.121E-01
RMM:  17    -0.258032791682E+03   -0.13298E-04   -0.24314E-05   671   0.147E-02    0.597E-02
RMM:  18    -0.258032818949E+03   -0.27267E-04   -0.12932E-05   665   0.103E-02    0.664E-02
RMM:  19    -0.258032820188E+03   -0.12391E-05   -0.10994E-05   663   0.950E-03    0.723E-02
RMM:  20    -0.258032816060E+03    0.41284E-05   -0.84515E-06   648   0.881E-03    0.412E-02
RMM:  21    -0.258032820439E+03   -0.43793E-05   -0.36294E-06   456   0.595E-03    0.237E-02
RMM:  22    -0.258032823720E+03   -0.32802E-05   -0.16313E-06   365   0.403E-03    0.220E-02
RMM:  23    -0.258032825222E+03   -0.15020E-05   -0.13998E-06   364   0.385E-03    0.242E-02
RMM:  24    -0.258032825174E+03    0.47796E-07   -0.86847E-07   354   0.323E-03
  15 F= -.25803283E+03 E0= -.25777155E+03  d E =-.425213E-02
quench:  g(F)=  0.000E+00 g(S)=  0.000E+00 dE (1.order)= 0.000E+00
 reached required accuracy - stopping structural energy minimisation
