neb_test                                
           1
    20.000000    0.000000    0.000000
     0.000000   20.000000    0.000000
     0.000000    0.000000   20.000000
   Ni   S 
  55   1
Direct configuration=     1
   0.35040684  0.59576477  0.41042330
   0.45171638  0.66336138  0.37700335
   0.41225468  0.66233259  0.49691560
   0.51321411  0.72310946  0.46426882
   0.51481045  0.60840321  0.46411865
   0.57723436  0.66500406  0.37760222
   0.61615718  0.66529845  0.49690438
   0.31628645  0.59308337  0.52702466
   0.34754122  0.49005223  0.58546123
   0.41489687  0.54183609  0.49702317
   0.41341257  0.59728302  0.60358917
   0.51403128  0.66341134  0.57109875
   0.51500506  0.54286172  0.57007055
   0.61558209  0.54477553  0.49688472
   0.61649235  0.59868596  0.60431286
   0.39271282  0.59365316  0.29552537
   0.35162653  0.48886390  0.34388782
   0.45359543  0.49057086  0.27045284
   0.45366164  0.54292014  0.37891561
   0.51515222  0.59810602  0.29088039
   0.51692277  0.43833083  0.35876266
   0.57931765  0.49221824  0.27050139
   0.57753422  0.54447062  0.37908530
   0.31264488  0.48795686  0.46423687
   0.35375884  0.38098267  0.51682590
   0.41663350  0.43690831  0.43104349
   0.45470977  0.43752525  0.54957053
   0.51598418  0.49078513  0.46436975
   0.51711413  0.37292802  0.46447828
   0.61685813  0.43939302  0.43144028
   0.57898330  0.43865024  0.54911554
   0.67967838  0.60003242  0.41093546
   0.71278760  0.59700570  0.52890358
   0.68101621  0.49231559  0.58367648
   0.63749399  0.59660015  0.29592844
   0.68098217  0.49327098  0.34444944
   0.71953316  0.49328513  0.46416559
   0.68227113  0.38548690  0.51730554
   0.45340955  0.49234791  0.66242179
   0.51600849  0.59551191  0.67254548
   0.57886213  0.49113856  0.65761146
   0.39454582  0.38242864  0.63247349
   0.45536163  0.31596604  0.55006126
   0.51790024  0.38230863  0.63665327
   0.58105720  0.31799450  0.55014281
   0.64003403  0.38780387  0.63210697
   0.41580545  0.38271771  0.32331629
   0.51747167  0.38739289  0.25545340
   0.61962067  0.38613393  0.32339518
   0.31958652  0.38453625  0.39893924
   0.41669508  0.31630801  0.43065919
   0.51855617  0.31831014  0.35640720
   0.62009405  0.31932825  0.43014501
   0.71563423  0.38940774  0.39965979
   0.51995943  0.25798226  0.46225562
   0.36791972  0.45318557  0.69668308
Direct configuration=     2
   0.35046327  0.59571752  0.41039724
   0.45165879  0.66330927  0.37704558
   0.41230108  0.66230785  0.49692601
   0.51320170  0.72301149  0.46428071
   0.51478940  0.60820606  0.46410893
   0.57722179  0.66496639  0.37763331
   0.61613238  0.66525505  0.49695056
   0.31643193  0.59297979  0.52703141
   0.34781417  0.48986677  0.58620138
   0.41502694  0.54181675  0.49699997
   0.41342378  0.59724040  0.60355956
   0.51404092  0.66340603  0.57105477
   0.51498264  0.54288262  0.56992713
   0.61543936  0.54469575  0.49681452
   0.61649515  0.59863730  0.60422095
   0.39276116  0.59362161  0.29562081
   0.35168960  0.48890655  0.34393877
   0.45360690  0.49055903  0.27048648
   0.45375579  0.54284894  0.37903957
   0.51514949  0.59811092  0.29094366
   0.51689326  0.43837510  0.35891242
   0.57929330  0.49221497  0.27052353
   0.57747184  0.54443054  0.37918302
   0.31260757  0.48794114  0.46432592
   0.35379399  0.38101370  0.51673779
   0.41678429  0.43700617  0.43110117
   0.45478424  0.43742877  0.54946490
   0.51603061  0.49082862  0.46430697
   0.51708770  0.37312458  0.46453273
   0.61670785  0.43943698  0.43151618
   0.57888476  0.43872879  0.54901386
   0.67961556  0.60002255  0.41095651
   0.71270217  0.59697663  0.52887541
   0.68092954  0.49237768  0.58366166
   0.63742849  0.59655259  0.29602750
   0.68097226  0.49326990  0.34447600
   0.71948430  0.49325622  0.46414605
   0.68216791  0.38547617  0.51725849
   0.45488170  0.49321940  0.66187221
   0.51602724  0.59548497  0.67241286
   0.57885866  0.49111272  0.65767108
   0.39499216  0.38096220  0.63116366
   0.45549153  0.31602542  0.54991761
   0.51803222  0.38229430  0.63651105
   0.58100138  0.31801582  0.55016469
   0.63999969  0.38783476  0.63202542
   0.41587573  0.38270293  0.32342712
   0.51749067  0.38746210  0.25555499
   0.61955633  0.38607939  0.32347730
   0.31968464  0.38457906  0.39895278
   0.41667998  0.31629391  0.43064779
   0.51852115  0.31835192  0.35640337
   0.62011113  0.31937278  0.43017399
   0.71554896  0.38946247  0.39968568
   0.51995731  0.25805987  0.46224314
   0.36689681  0.45334919  0.69823468
Direct configuration=     3
   0.35058665  0.59559237  0.41037764
   0.45153937  0.66320728  0.37716097
   0.41240549  0.66223966  0.49695453
   0.51318528  0.72275979  0.46429926
   0.51474120  0.60790730  0.46406602
   0.57718676  0.66488824  0.37770394
   0.61605721  0.66515420  0.49705737
   0.31677261  0.59270142  0.52707357
   0.34849110  0.48940997  0.58806022
   0.41520547  0.54174266  0.49703352
   0.41345492  0.59722669  0.60347151
   0.51408129  0.66342083  0.57092727
   0.51503276  0.54300716  0.56947684
   0.61523881  0.54457008  0.49667399
   0.61652860  0.59854516  0.60399870
   0.39289093  0.59353161  0.29584561
   0.35182940  0.48898622  0.34406787
   0.45362064  0.49052900  0.27057732
   0.45392948  0.54273729  0.37921290
   0.51514562  0.59811903  0.29109056
   0.51685078  0.43844237  0.35913600
   0.57924008  0.49220262  0.27059294
   0.57738677  0.54435933  0.37931922
   0.31259004  0.48790010  0.46458436
   0.35386403  0.38107112  0.51643529
   0.41701614  0.43720024  0.43116658
   0.45493251  0.43731774  0.54919695
   0.51606242  0.49089279  0.46426417
   0.51706160  0.37343263  0.46460652
   0.61646883  0.43949459  0.43162411
   0.57873824  0.43891519  0.54885426
   0.67947931  0.60000156  0.41099931
   0.71248728  0.59688644  0.52878836
   0.68073491  0.49249860  0.58363064
   0.63728518  0.59644110  0.29625224
   0.68092958  0.49325827  0.34453439
   0.71936107  0.49319270  0.46412643
   0.68195067  0.38545187  0.51715877
   0.45585402  0.49383500  0.66149476
   0.51622241  0.59563826  0.67215766
   0.57895866  0.49104334  0.65778647
   0.39519256  0.37981260  0.63015230
   0.45586652  0.31597423  0.54950646
   0.51831404  0.38227293  0.63613590
   0.58091145  0.31805421  0.55017238
   0.63992245  0.38792014  0.63183466
   0.41602361  0.38266793  0.32366351
   0.51753260  0.38762426  0.25579219
   0.61943254  0.38597829  0.32365431
   0.31992067  0.38469623  0.39901116
   0.41667393  0.31626459  0.43059083
   0.51845550  0.31845183  0.35642671
   0.62012409  0.31947823  0.43024513
   0.71534686  0.38959365  0.39973395
   0.51997420  0.25825750  0.46218852
   0.36625514  0.45333668  0.69881187
Direct configuration=     4
   0.35062890  0.59551738  0.41041708
   0.45148695  0.66317451  0.37722366
   0.41243505  0.66220002  0.49697540
   0.51318230  0.72263489  0.46429989
   0.51472024  0.60789356  0.46401270
   0.57715899  0.66486096  0.37774388
   0.61601634  0.66510889  0.49710056
   0.31694250  0.59250428  0.52716416
   0.34882348  0.48925804  0.58889047
   0.41517347  0.54166863  0.49711908
   0.41349886  0.59725062  0.60345479
   0.51410663  0.66345095  0.57086519
   0.51509751  0.54311170  0.56937159
   0.61523521  0.54455140  0.49660679
   0.61654982  0.59851515  0.60391175
   0.39295257  0.59348690  0.29593979
   0.35188708  0.48901322  0.34414247
   0.45362718  0.49051764  0.27062013
   0.45398271  0.54272310  0.37921780
   0.51513550  0.59812087  0.29116038
   0.51684844  0.43846043  0.35916420
   0.57921430  0.49219704  0.27063743
   0.57738424  0.54432935  0.37932460
   0.31264362  0.48786832  0.46477040
   0.35389323  0.38109720  0.51630459
   0.41703502  0.43725849  0.43116008
   0.45492936  0.43728251  0.54915426
   0.51603582  0.49089898  0.46425853
   0.51707925  0.37347403  0.46458419
   0.61642680  0.43949457  0.43162683
   0.57872358  0.43900028  0.54885407
   0.67942839  0.59999967  0.41102176
   0.71240672  0.59684546  0.52873913
   0.68065303  0.49253840  0.58361613
   0.63722783  0.59639102  0.29634929
   0.68089712  0.49324514  0.34456165
   0.71930073  0.49316952  0.46413132
   0.68185836  0.38544315  0.51712588
   0.45560719  0.49363767  0.66163586
   0.51637612  0.59578253  0.67201008
   0.57903181  0.49104354  0.65780446
   0.39509763  0.37987138  0.63030740
   0.45604066  0.31587203  0.54929622
   0.51839618  0.38226147  0.63598092
   0.58090399  0.31805758  0.55014643
   0.63990949  0.38796242  0.63173585
   0.41608239  0.38265608  0.32375398
   0.51754597  0.38769010  0.25589109
   0.61938372  0.38593972  0.32373435
   0.32003027  0.38476757  0.39904095
   0.41668707  0.31625781  0.43054754
   0.51844101  0.31848632  0.35645606
   0.62010929  0.31951283  0.43027792
   0.71525188  0.38965049  0.39974809
   0.51999911  0.25833412  0.46213677
   0.36680274  0.45303093  0.69821572
Direct configuration=     5
   0.35067348  0.59541873  0.41048946
   0.45141689  0.66314857  0.37728689
   0.41246286  0.66214627  0.49701289
   0.51317645  0.72252642  0.46429692
   0.51468915  0.60783603  0.46393797
   0.57712927  0.66483578  0.37778695
   0.61597831  0.66506272  0.49714731
   0.31712080  0.59226108  0.52732553
   0.34917061  0.48916161  0.58971588
   0.41517658  0.54154555  0.49722342
   0.41358433  0.59728361  0.60346406
   0.51413581  0.66350723  0.57079836
   0.51515298  0.54319952  0.56930868
   0.61520501  0.54451838  0.49650381
   0.61658659  0.59848878  0.60382333
   0.39301103  0.59344314  0.29603850
   0.35193976  0.48904558  0.34423004
   0.45363180  0.49050110  0.27066422
   0.45405494  0.54270276  0.37924743
   0.51512145  0.59813153  0.29123828
   0.51684429  0.43849355  0.35921750
   0.57918943  0.49219216  0.27068281
   0.57737037  0.54428024  0.37934717
   0.31270427  0.48781419  0.46501541
   0.35394898  0.38112550  0.51621236
   0.41708725  0.43732966  0.43115902
   0.45492212  0.43721506  0.54912123
   0.51601383  0.49092525  0.46425435
   0.51710106  0.37355259  0.46455940
   0.61634916  0.43950646  0.43164107
   0.57868494  0.43911237  0.54883355
   0.67937716  0.60000817  0.41104425
   0.71234003  0.59680840  0.52868413
   0.68057536  0.49258508  0.58360133
   0.63717152  0.59634180  0.29644860
   0.68086645  0.49323003  0.34458876
   0.71923948  0.49313820  0.46413572
   0.68175677  0.38543148  0.51708680
   0.45585872  0.49366003  0.66163038
   0.51653495  0.59589779  0.67182499
   0.57907695  0.49106117  0.65782360
   0.39518696  0.37948651  0.63012660
   0.45621203  0.31577840  0.54908983
   0.51846025  0.38224847  0.63579085
   0.58090608  0.31805864  0.55011200
   0.63990533  0.38800718  0.63162898
   0.41614953  0.38263761  0.32384721
   0.51755907  0.38775469  0.25599068
   0.61933113  0.38588956  0.32382119
   0.32013311  0.38484350  0.39906722
   0.41670129  0.31624583  0.43049022
   0.51842970  0.31851590  0.35647719
   0.62010374  0.31953835  0.43030801
   0.71515915  0.38970389  0.39976163
   0.52004283  0.25839102  0.46205449
   0.36684012  0.45283957  0.69805365
Direct configuration=     6
   0.35072570  0.59528590  0.41061457
   0.45132512  0.66313514  0.37735507
   0.41249043  0.66206569  0.49707084
   0.51316666  0.72242513  0.46428724
   0.51464218  0.60777644  0.46385348
   0.57709785  0.66481222  0.37783031
   0.61593812  0.66501347  0.49719965
   0.31730454  0.59197903  0.52757043
   0.34955010  0.48908703  0.59059187
   0.41520786  0.54138573  0.49736882
   0.41371455  0.59734476  0.60350370
   0.51417912  0.66359488  0.57071142
   0.51522417  0.54329248  0.56920159
   0.61518008  0.54449435  0.49637763
   0.61665883  0.59847522  0.60371868
   0.39306455  0.59339703  0.29614748
   0.35198673  0.48907980  0.34433779
   0.45362870  0.49047850  0.27071393
   0.45412899  0.54269077  0.37927734
   0.51510452  0.59815089  0.29132597
   0.51683949  0.43853171  0.35926610
   0.57916533  0.49218757  0.27072916
   0.57736085  0.54422248  0.37936322
   0.31277583  0.48772664  0.46532318
   0.35402607  0.38113678  0.51612473
   0.41714797  0.43739909  0.43114380
   0.45491664  0.43714254  0.54908275
   0.51597939  0.49095279  0.46428443
   0.51713084  0.37362777  0.46452892
   0.61626633  0.43951434  0.43165195
   0.57864605  0.43924436  0.54881476
   0.67932925  0.60002905  0.41106275
   0.71228389  0.59676912  0.52861674
   0.68050363  0.49263653  0.58358219
   0.63711631  0.59629443  0.29655073
   0.68083353  0.49321138  0.34461820
   0.71917709  0.49310000  0.46414602
   0.68164867  0.38541912  0.51704255
   0.45601696  0.49355405  0.66173117
   0.51674306  0.59606336  0.67164482
   0.57915372  0.49108256  0.65785096
   0.39527407  0.37912115  0.63008574
   0.45640896  0.31563884  0.54884593
   0.51852264  0.38222893  0.63556562
   0.58092613  0.31805835  0.55005434
   0.63990067  0.38806155  0.63150744
   0.41622052  0.38261382  0.32393728
   0.51757212  0.38781365  0.25608691
   0.61927897  0.38583342  0.32391107
   0.32023635  0.38492870  0.39910183
   0.41672608  0.31623142  0.43041493
   0.51842576  0.31854191  0.35648995
   0.62010782  0.31955363  0.43033266
   0.71506604  0.38975221  0.39977271
   0.52011143  0.25843109  0.46193608
   0.36680164  0.45269561  0.69764998
Direct configuration=     7
   0.35078371  0.59511360  0.41081208
   0.45121602  0.66314085  0.37741821
   0.41251469  0.66195510  0.49715510
   0.51314946  0.72235118  0.46426325
   0.51458534  0.60774117  0.46375560
   0.57706542  0.66479443  0.37787119
   0.61590196  0.66497126  0.49724299
   0.31749119  0.59167097  0.52790875
   0.34988976  0.48909151  0.59132019
   0.41523324  0.54120872  0.49755904
   0.41391417  0.59741329  0.60360336
   0.51424179  0.66370763  0.57062102
   0.51529092  0.54338594  0.56920759
   0.61517072  0.54448792  0.49623241
   0.61675750  0.59847736  0.60361446
   0.39309223  0.59335814  0.29625635
   0.35201141  0.48911092  0.34445832
   0.45361468  0.49045242  0.27076753
   0.45419705  0.54269116  0.37931043
   0.51508176  0.59818257  0.29141700
   0.51683518  0.43857450  0.35931237
   0.57914613  0.49218677  0.27076879
   0.57735330  0.54415686  0.37937298
   0.31286055  0.48760168  0.46568247
   0.35414414  0.38111316  0.51609419
   0.41720845  0.43744949  0.43111330
   0.45488460  0.43702172  0.54910130
   0.51596377  0.49096825  0.46428423
   0.51716967  0.37368415  0.46449389
   0.61618374  0.43951277  0.43166103
   0.57862066  0.43938213  0.54880765
   0.67929397  0.60006668  0.41106874
   0.71225943  0.59673397  0.52853723
   0.68045530  0.49268748  0.58355417
   0.63707409  0.59626024  0.29663354
   0.68080642  0.49319293  0.34464822
   0.71912304  0.49305706  0.46415691
   0.68154651  0.38540956  0.51699701
   0.45637214  0.49350431  0.66181378
   0.51696834  0.59619368  0.67144695
   0.57922268  0.49112787  0.65788023
   0.39546085  0.37859087  0.62996811
   0.45658304  0.31549549  0.54861880
   0.51857194  0.38219924  0.63533247
   0.58096990  0.31805524  0.54996856
   0.63990029  0.38812058  0.63138472
   0.41628144  0.38258695  0.32400644
   0.51758405  0.38785640  0.25616359
   0.61923281  0.38577873  0.32399187
   0.32031460  0.38500630  0.39913675
   0.41676276  0.31621534  0.43032570
   0.51843559  0.31856033  0.35648447
   0.62012896  0.31954894  0.43034048
   0.71498726  0.38978525  0.39977949
   0.52021397  0.25843204  0.46177259
   0.36645331  0.45262942  0.69737359
Direct configuration=     8
   0.35082918  0.59494909  0.41102735
   0.45111021  0.66316622  0.37746541
   0.41253104  0.66185543  0.49724542
   0.51312510  0.72232691  0.46423136
   0.51453441  0.60770395  0.46370393
   0.57704139  0.66479019  0.37789156
   0.61588095  0.66495478  0.49726914
   0.31762262  0.59143662  0.52825151
   0.35012092  0.48910837  0.59183507
   0.41531113  0.54103726  0.49774150
   0.41410055  0.59748490  0.60373901
   0.51431938  0.66382102  0.57054533
   0.51536079  0.54341397  0.56909241
   0.61516114  0.54450589  0.49611892
   0.61687862  0.59850291  0.60352277
   0.39308311  0.59333204  0.29635357
   0.35201004  0.48912833  0.34456526
   0.45359117  0.49043120  0.27081846
   0.45423556  0.54270636  0.37933563
   0.51505579  0.59821532  0.29149040
   0.51683043  0.43859234  0.35930864
   0.57913206  0.49218774  0.27079078
   0.57736299  0.54411592  0.37935430
   0.31292952  0.48746365  0.46600236
   0.35425361  0.38103712  0.51608429
   0.41724894  0.43747314  0.43108485
   0.45490278  0.43696733  0.54908379
   0.51590913  0.49099173  0.46439677
   0.51720197  0.37368929  0.46447336
   0.61614613  0.43949075  0.43165943
   0.57860343  0.43950450  0.54879844
   0.67928548  0.60010954  0.41105658
   0.71227989  0.59671748  0.52846478
   0.68044561  0.49272621  0.58351942
   0.63704580  0.59624369  0.29668513
   0.68079201  0.49317841  0.34467297
   0.71909721  0.49302409  0.46416428
   0.68148521  0.38540207  0.51696097
   0.45626924  0.49322555  0.66206214
   0.51718473  0.59634706  0.67139072
   0.57933204  0.49115293  0.65792670
   0.39552370  0.37842734  0.63019069
   0.45671772  0.31532849  0.54843186
   0.51863471  0.38214557  0.63517868
   0.58102316  0.31804885  0.54986948
   0.63990178  0.38817005  0.63129585
   0.41631341  0.38256430  0.32403143
   0.51759066  0.38787060  0.25619325
   0.61920801  0.38574235  0.32403612
   0.32036505  0.38505845  0.39918017
   0.41680908  0.31619961  0.43025018
   0.51846051  0.31856861  0.35645728
   0.62016401  0.31952585  0.43032164
   0.71494603  0.38979390  0.39977678
   0.52031905  0.25840275  0.46161581
   0.36640691  0.45256361  0.69671974
Direct configuration=     9
   0.35084065  0.59490432  0.41109509
   0.45108451  0.66317297  0.37747747
   0.41253567  0.66182735  0.49727391
   0.51311666  0.72232408  0.46421954
   0.51452344  0.60771300  0.46368790
   0.57703337  0.66478717  0.37789820
   0.61587959  0.66495397  0.49726666
   0.31766082  0.59137898  0.52834456
   0.35015114  0.48914035  0.59186485
   0.41529996  0.54101073  0.49779551
   0.41416086  0.59749126  0.60378241
   0.51434096  0.66383597  0.57053474
   0.51536994  0.54343893  0.56917041
   0.61516889  0.54451711  0.49608960
   0.61689881  0.59850514  0.60350367
   0.39307114  0.59332785  0.29637903
   0.35200571  0.48913076  0.34459365
   0.45358397  0.49042697  0.27083073
   0.45424815  0.54270702  0.37935216
   0.51504602  0.59822406  0.29150863
   0.51682851  0.43860532  0.35933024
   0.57912977  0.49218883  0.27079154
   0.57735289  0.54409674  0.37936528
   0.31295115  0.48742820  0.46608864
   0.35429143  0.38100936  0.51610620
   0.41726118  0.43747434  0.43107854
   0.45488665  0.43691792  0.54912080
   0.51592877  0.49097633  0.46434133
   0.51721066  0.37369435  0.46446774
   0.61612390  0.43949009  0.43166313
   0.57861068  0.43952209  0.54880754
   0.67928733  0.60012176  0.41105061
   0.71229192  0.59671493  0.52844335
   0.68045100  0.49273652  0.58350724
   0.63704422  0.59624517  0.29668626
   0.68079234  0.49317674  0.34467827
   0.71909293  0.49301730  0.46416179
   0.68147400  0.38540190  0.51695074
   0.45647215  0.49328824  0.66203475
   0.51722552  0.59633447  0.67135018
   0.57933238  0.49116965  0.65793116
   0.39561591  0.37823676  0.63008681
   0.45673536  0.31530525  0.54840802
   0.51864461  0.38213075  0.63514553
   0.58103589  0.31804827  0.54984397
   0.63990153  0.38818323  0.63127360
   0.41631946  0.38255957  0.32403264
   0.51759165  0.38786988  0.25619167
   0.61920502  0.38573518  0.32404075
   0.32037380  0.38506459  0.39919118
   0.41682210  0.31619422  0.43023301
   0.51847018  0.31856877  0.35644339
   0.62017793  0.31951575  0.43030913
   0.71494578  0.38979015  0.39977383
   0.52034906  0.25838851  0.46157182
   0.36619413  0.45257714  0.69681236
Direct configuration=    10
   0.35085466  0.59484578  0.41118248
   0.45104867  0.66318156  0.37749462
   0.41254209  0.66179379  0.49731214
   0.51310510  0.72232338  0.46420559
   0.51450859  0.60770871  0.46367775
   0.57702446  0.66478260  0.37790378
   0.61587961  0.66495560  0.49726463
   0.31770090  0.59131273  0.52846994
   0.35020504  0.48915230  0.59196350
   0.41532041  0.54096287  0.49786262
   0.41422929  0.59750775  0.60384087
   0.51437278  0.66386129  0.57051758
   0.51539224  0.54344737  0.56917569
   0.61517061  0.54452983  0.49605530
   0.61693648  0.59851208  0.60347439
   0.39305502  0.59332075  0.29641711
   0.35200060  0.48913253  0.34463237
   0.45357348  0.49042128  0.27084838
   0.45425545  0.54271474  0.37936630
   0.51503390  0.59823380  0.29153319
   0.51682596  0.43860584  0.35932749
   0.57912550  0.49219036  0.27079454
   0.57735532  0.54408555  0.37936087
   0.31297696  0.48737683  0.46620141
   0.35433497  0.38096687  0.51611775
   0.41727226  0.43747518  0.43107252
   0.45489127  0.43688479  0.54913480
   0.51592622  0.49097666  0.46435708
   0.51722202  0.37368931  0.46446318
   0.61611489  0.43947925  0.43166394
   0.57861118  0.43955738  0.54880787
   0.67929051  0.60013718  0.41104011
   0.71231050  0.59671343  0.52841583
   0.68045894  0.49275046  0.58349082
   0.63703801  0.59624429  0.29669316
   0.68079022  0.49317562  0.34468549
   0.71908785  0.49300962  0.46415932
   0.68146163  0.38540105  0.51693733
   0.45652240  0.49325035  0.66208141
   0.51729269  0.59635582  0.67133506
   0.57936003  0.49118133  0.65794529
   0.39567096  0.37813317  0.63010123
   0.45676989  0.31525347  0.54836269
   0.51866584  0.38210705  0.63510772
   0.58105333  0.31804566  0.54980827
   0.63990261  0.38819982  0.63124784
   0.41632628  0.38255312  0.32403268
   0.51759284  0.38787167  0.25619380
   0.61920076  0.38572910  0.32404556
   0.32038606  0.38507151  0.39920996
   0.41684088  0.31618609  0.43020952
   0.51848288  0.31857149  0.35642523
   0.62019447  0.31950535  0.43029260
   0.71493942  0.38978864  0.39977135
   0.52038750  0.25837303  0.46151662
   0.36609232  0.45257570  0.69669604
Direct configuration=    11
   0.35087174  0.59477242  0.41129544
   0.45100409  0.66319257  0.37751728
   0.41255015  0.66175272  0.49736229
   0.51308994  0.72232100  0.46418888
   0.51448979  0.60770545  0.46366765
   0.57701167  0.66477655  0.37791008
   0.61588109  0.66496035  0.49725878
   0.31774935  0.59123568  0.52862679
   0.35026673  0.48916630  0.59206179
   0.41534566  0.54090555  0.49794928
   0.41431401  0.59752531  0.60391506
   0.51441392  0.66388858  0.57049934
   0.51541995  0.54345803  0.56918714
   0.61517595  0.54454855  0.49601289
   0.61698315  0.59851990  0.60343874
   0.39303112  0.59331248  0.29646724
   0.35199286  0.48913341  0.34468214
   0.45355913  0.49041638  0.27087220
   0.45426653  0.54272180  0.37938787
   0.51501636  0.59824565  0.29156319
   0.51682212  0.43860978  0.35933115
   0.57911991  0.49219310  0.27079626
   0.57735476  0.54406896  0.37935891
   0.31300994  0.48731258  0.46634335
   0.35438833  0.38090718  0.51613499
   0.41728737  0.43747632  0.43106634
   0.45490079  0.43684217  0.54915486
   0.51592383  0.49097174  0.46436477
   0.51723665  0.37368433  0.46445706
   0.61610300  0.43946616  0.43166445
   0.57861553  0.43959692  0.54881240
   0.67929545  0.60015605  0.41102521
   0.71233357  0.59671259  0.52837968
   0.68047156  0.49276561  0.58346903
   0.63703076  0.59624556  0.29669731
   0.68078725  0.49317436  0.34469403
   0.71908331  0.49300099  0.46415396
   0.68144821  0.38540013  0.51692006
   0.45657355  0.49319979  0.66213774
   0.51737694  0.59637905  0.67132305
   0.57939709  0.49119222  0.65796218
   0.39573692  0.37801825  0.63012746
   0.45681338  0.31518878  0.54830973
   0.51869598  0.38207397  0.63506640
   0.58107723  0.31804291  0.54976375
   0.63990768  0.38821854  0.63121812
   0.41633316  0.38254587  0.32403220
   0.51759401  0.38787333  0.25619150
   0.61919882  0.38572297  0.32404752
   0.32040174  0.38507690  0.39923631
   0.41686644  0.31617537  0.43018159
   0.51850090  0.31857387  0.35640081
   0.62021785  0.31948981  0.43026762
   0.71493680  0.38978500  0.39976542
   0.52043588  0.25835302  0.46144748
   0.36598373  0.45256673  0.69655956
Direct configuration=    12
   0.35088919  0.59468616  0.41143298
   0.45095217  0.66320361  0.37754652
   0.41256010  0.66170695  0.49742602
   0.51307128  0.72231982  0.46417118
   0.51446950  0.60770124  0.46366061
   0.57699525  0.66476924  0.37791508
   0.61588381  0.66496822  0.49724684
   0.31780670  0.59115276  0.52880984
   0.35033226  0.48917795  0.59214941
   0.41537728  0.54084140  0.49805224
   0.41441164  0.59754332  0.60400741
   0.51446432  0.66391599  0.57048503
   0.51545489  0.54346494  0.56920315
   0.61518117  0.54456970  0.49596338
   0.61703687  0.59852760  0.60339951
   0.39299763  0.59330251  0.29653218
   0.35198184  0.48913142  0.34474388
   0.45354113  0.49041268  0.27090411
   0.45427692  0.54272961  0.37941500
   0.51499365  0.59825884  0.29159767
   0.51681823  0.43861081  0.35933195
   0.57911326  0.49219800  0.27079747
   0.57735548  0.54405039  0.37935498
   0.31304778  0.48723645  0.46650989
   0.35445420  0.38082996  0.51615575
   0.41730359  0.43747640  0.43106395
   0.45491940  0.43678905  0.54917659
   0.51592546  0.49096607  0.46437993
   0.51725545  0.37367497  0.46445000
   0.61609155  0.43944971  0.43166475
   0.57862413  0.43964147  0.54881796
   0.67930156  0.60017683  0.41100245
   0.71236012  0.59671245  0.52833441
   0.68048828  0.49278048  0.58344052
   0.63702034  0.59624784  0.29669961
   0.68078452  0.49317429  0.34470103
   0.71907744  0.49299122  0.46414296
   0.68143777  0.38539694  0.51689950
   0.45663016  0.49314401  0.66219938
   0.51747646  0.59639858  0.67131619
   0.57944301  0.49120209  0.65798400
   0.39581639  0.37789482  0.63015783
   0.45686580  0.31511279  0.54825216
   0.51873617  0.38203185  0.63502558
   0.58110884  0.31803903  0.54971095
   0.63991876  0.38823807  0.63118603
   0.41633932  0.38253786  0.32403164
   0.51759489  0.38787730  0.25618664
   0.61919902  0.38572068  0.32404557
   0.32042166  0.38507908  0.39927154
   0.41689986  0.31616123  0.43014925
   0.51852395  0.31857722  0.35636996
   0.62024735  0.31947147  0.43023372
   0.71493554  0.38978204  0.39975667
   0.52049355  0.25832563  0.46136632
   0.36586390  0.45255406  0.69641901
Direct configuration=    13
   0.35090603  0.59459060  0.41159049
   0.45089414  0.66321408  0.37758357
   0.41257630  0.66165831  0.49750123
   0.51305004  0.72231970  0.46415527
   0.51445059  0.60769701  0.46366081
   0.57697527  0.66476253  0.37792047
   0.61589214  0.66498074  0.49722827
   0.31787288  0.59106967  0.52901114
   0.35039956  0.48917586  0.59222742
   0.41541551  0.54077546  0.49816522
   0.41451846  0.59755711  0.60411195
   0.51452568  0.66393948  0.57047317
   0.51550079  0.54347076  0.56922306
   0.61519126  0.54459584  0.49591227
   0.61710067  0.59853442  0.60335356
   0.39295195  0.59329165  0.29661149
   0.35196519  0.48912346  0.34481682
   0.45351616  0.49041147  0.27094386
   0.45428727  0.54273667  0.37945139
   0.51496319  0.59827252  0.29163836
   0.51681363  0.43861002  0.35933666
   0.57910407  0.49220630  0.27080027
   0.57735625  0.54403059  0.37934916
   0.31309015  0.48714791  0.46669334
   0.35452997  0.38073307  0.51617793
   0.41732162  0.43747518  0.43106999
   0.45494736  0.43672570  0.54920078
   0.51592891  0.49095676  0.46439521
   0.51727920  0.37365949  0.46444202
   0.61608146  0.43942904  0.43166563
   0.57864065  0.43968527  0.54882593
   0.67931204  0.60020073  0.41097466
   0.71239501  0.59671641  0.52828204
   0.68051150  0.49279811  0.58340234
   0.63700546  0.59625132  0.29669873
   0.68078267  0.49317733  0.34470744
   0.71907594  0.49298468  0.46412721
   0.68143277  0.38539289  0.51687508
   0.45667381  0.49307512  0.66226762
   0.51758875  0.59640882  0.67131400
   0.57949739  0.49120764  0.65800859
   0.39590577  0.37777739  0.63019816
   0.45692465  0.31502474  0.54819561
   0.51878530  0.38198193  0.63498623
   0.58114560  0.31803436  0.54965128
   0.63993428  0.38825896  0.63114965
   0.41634027  0.38252770  0.32403172
   0.51759496  0.38788515  0.25617946
   0.61920290  0.38572383  0.32403908
   0.32043792  0.38507082  0.39931374
   0.41693938  0.31614196  0.43011351
   0.51855063  0.31858054  0.35633433
   0.62028126  0.31945283  0.43019152
   0.71493848  0.38977925  0.39974343
   0.52055934  0.25829519  0.46127643
   0.36573589  0.45254885  0.69626102
Direct configuration=    14
   0.35092112  0.59449066  0.41176403
   0.45083258  0.66322107  0.37763149
   0.41259643  0.66161103  0.49758997
   0.51302834  0.72231949  0.46414321
   0.51443699  0.60768921  0.46366682
   0.57695038  0.66475329  0.37792578
   0.61590427  0.66499725  0.49720168
   0.31794429  0.59098956  0.52922568
   0.35046474  0.48916395  0.59228192
   0.41546437  0.54071116  0.49829055
   0.41463168  0.59756380  0.60422607
   0.51459552  0.66395713  0.57047077
   0.51554912  0.54346445  0.56924876
   0.61520353  0.54462322  0.49585464
   0.61717016  0.59854025  0.60330869
   0.39289578  0.59327701  0.29671037
   0.35194625  0.48910920  0.34490131
   0.45348669  0.49041114  0.27099225
   0.45429411  0.54274247  0.37949363
   0.51492312  0.59828499  0.29168358
   0.51680728  0.43860342  0.35933908
   0.57909030  0.49221556  0.27079970
   0.57735658  0.54401027  0.37934490
   0.31313579  0.48705309  0.46688701
   0.35461507  0.38061678  0.51620344
   0.41733618  0.43746832  0.43108085
   0.45499029  0.43665563  0.54922619
   0.51594316  0.49094546  0.46441821
   0.51730595  0.37364068  0.46443425
   0.61607502  0.43940760  0.43166719
   0.57866136  0.43973028  0.54883003
   0.67932248  0.60022516  0.41093883
   0.71243287  0.59672270  0.52822008
   0.68054232  0.49281388  0.58335976
   0.63698454  0.59625705  0.29669436
   0.68077984  0.49318254  0.34471108
   0.71907560  0.49297843  0.46410353
   0.68143417  0.38538738  0.51684622
   0.45673212  0.49301203  0.66232724
   0.51770877  0.59640806  0.67132483
   0.57955529  0.49120940  0.65803527
   0.39600806  0.37765738  0.63023775
   0.45698847  0.31493096  0.54814495
   0.51884217  0.38192788  0.63495188
   0.58118828  0.31802884  0.54958932
   0.63995917  0.38827796  0.63111532