 vasp.5.4.4.18Apr17-6-g9f103f2a35 (build Aug 09 2024 17:42:55) complex          
  
 executed on             LinuxIFC date 2025.08.27  23:57:10
 running on   64 total cores
 distrk:  each k-point on   64 cores,    1 groups
 distr:  one band on NCORES_PER_BAND=   8 cores,    8 groups


--------------------------------------------------------------------------------------------------------


 INCAR:
 POTCAR:    PAW_PBE Hf_pv 06Sep2000               
 POTCAR:    PAW_PBE C 08Apr2002                   
 POTCAR:    PAW_PBE O 08Apr2002                   
 POTCAR:    PAW_PBE Hf_pv 06Sep2000               
  local pseudopotential read in
  partial core-charges read in
  partial kinetic energy density read in
  atomic valenz-charges read in
  non local Contribution for L=           1  read in
    real space projection operators read in
  non local Contribution for L=           1  read in
    real space projection operators read in
  non local Contribution for L=           2  read in
    real space projection operators read in
  non local Contribution for L=           2  read in
    real space projection operators read in
  non local Contribution for L=           0  read in
    real space projection operators read in
  non local Contribution for L=           0  read in
    real space projection operators read in
    PAW grid and wavefunctions read in
 
   number of l-projection  operators is LMAX  =           6
   number of lm-projection operators is LMMAX =          18
 
 POTCAR:    PAW_PBE C 08Apr2002                   
  local pseudopotential read in
  partial core-charges read in
  partial kinetic energy density read in
  atomic valenz-charges read in
  non local Contribution for L=           0  read in
    real space projection operators read in
  non local Contribution for L=           0  read in
    real space projection operators read in
  non local Contribution for L=           1  read in
    real space projection operators read in
  non local Contribution for L=           1  read in
    real space projection operators read in
    PAW grid and wavefunctions read in
 
   number of l-projection  operators is LMAX  =           4
   number of lm-projection operators is LMMAX =           8
 
 POTCAR:    PAW_PBE O 08Apr2002                   
  local pseudopotential read in
  partial core-charges read in
  partial kinetic energy density read in
  kinetic energy density of atom read in
  atomic valenz-charges read in
  non local Contribution for L=           0  read in
    real space projection operators read in
  non local Contribution for L=           0  read in
    real space projection operators read in
  non local Contribution for L=           1  read in
    real space projection operators read in
  non local Contribution for L=           1  read in
    real space projection operators read in
    PAW grid and wavefunctions read in
 
   number of l-projection  operators is LMAX  =           4
   number of lm-projection operators is LMMAX =           8
 
 Optimization of the real space projectors (new method)

 maximal supplied QI-value         = 14.36
 optimisation between [QCUT,QGAM] = [ 11.63, 23.27] = [ 37.90,151.59] Ry 
 Optimized for a Real-space Cutoff    1.45 Angstroem

   l    n(q)    QCUT    max X(q) W(low)/X(q) W(high)/X(q)  e(spline) 
   1     10    11.633    53.935    0.15E-03    0.23E-03    0.11E-06
   1     10    11.633    55.378    0.15E-03    0.24E-03    0.11E-06
   2      9    11.633    48.043    0.29E-03    0.12E-02    0.16E-05
   2      9    11.633    39.488    0.28E-03    0.11E-02    0.15E-05
   0     10    11.633   121.653    0.35E-03    0.21E-03    0.94E-06
   0     10    11.633    66.520    0.32E-03    0.19E-03    0.85E-06
 Optimization of the real space projectors (new method)

 maximal supplied QI-value         = 25.13
 optimisation between [QCUT,QGAM] = [ 11.56, 23.12] = [ 37.43,149.72] Ry 
 Optimized for a Real-space Cutoff    1.04 Angstroem

   l    n(q)    QCUT    max X(q) W(low)/X(q) W(high)/X(q)  e(spline) 
   0      7    11.561   115.676    0.20E-03    0.60E-03    0.21E-06
   0      7    11.561    87.132    0.20E-03    0.59E-03    0.21E-06
   1      7    11.561     4.429    0.23E-03    0.35E-03    0.15E-06
   1      7    11.561     2.733    0.18E-03    0.25E-03    0.12E-06
 Optimization of the real space projectors (new method)

 maximal supplied QI-value         = 24.76
 optimisation between [QCUT,QGAM] = [ 11.64, 23.27] = [ 37.91,151.63] Ry 
 Optimized for a Real-space Cutoff    1.04 Angstroem

   l    n(q)    QCUT    max X(q) W(low)/X(q) W(high)/X(q)  e(spline) 
   0      7    11.635    20.381    0.14E-03    0.49E-03    0.18E-06
   0      7    11.635    15.268    0.16E-03    0.52E-03    0.19E-06
   1      7    11.635     5.964    0.30E-03    0.44E-03    0.22E-06
   1      7    11.635     5.382    0.27E-03    0.34E-03    0.19E-06
  PAW_PBE Hf_pv 06Sep2000               :
 energy of atom  1       EATOM= -860.9206
 kinetic energy error for atom=    0.0012 (will be added to EATOM!!)
  PAW_PBE C 08Apr2002                   :
 energy of atom  2       EATOM= -147.1560
 kinetic energy error for atom=    0.0071 (will be added to EATOM!!)
  PAW_PBE O 08Apr2002                   :
 energy of atom  3       EATOM= -432.3788
 kinetic energy error for atom=    0.0208 (will be added to EATOM!!)
 
 
 POSCAR: hfc_pristine_initial\(2)                
  positions in direct lattice
  No initial velocities read in
 exchange correlation table for  LEXCH =        8
   RHO(1)=    0.500       N(1)  =     2000
   RHO(2)=  100.500       N(2)  =     4000

 VTST: version 3.2, (02/03/18)

 CHAIN: initializing optimizer
 
 OPT: Using VASP Conjugate-Gradient optimizer
 CHAIN: Read ICHAIN            0
 
 POSCAR: hfc_pristine_initial\(2)                
  positions in direct lattice
  No initial velocities read in
 


--------------------------------------------------------------------------------------------------------


 ion  position               nearest neighbor table
   1  0.001  0.999  0.313-  38 2.22  52 2.31  35 2.31  43 2.33  36 2.33   8 3.23  23 3.23  10 3.24
                            16 3.24   7 3.25  18 3.26   2 3.28  26 3.28
   2  0.249  0.250  0.315-  37 2.27  36 2.30  35 2.32  44 2.38  51 2.39  15 3.25   7 3.25  24 3.26
                             8 3.27   1 3.28  17 3.28  25 3.31   9 3.35
   3  0.000  0.250  0.000-  40 2.32  34 2.32  33 2.32  41 2.32  50 2.32   6 3.29  14 3.29  21 3.29
                             5 3.29  20 3.29  12 3.29  28 3.29   4 3.29
   4  0.250  0.000  0.000-  39 2.32  34 2.32  33 2.32  42 2.32  49 2.32   6 3.29  13 3.29  22 3.29
                             5 3.29  19 3.29  11 3.29  27 3.29   3 3.29
   5  0.000  0.000  0.106-  38 2.32  34 2.32  39 2.32  40 2.32  47 2.32  56 2.32  23 3.26   7 3.26
                            16 3.26   8 3.26  19 3.29   4 3.29  12 3.29   3 3.29   6 3.29  30 3.29
   6  0.250  0.250  0.106-  37 2.32  33 2.32  39 2.32  40 2.32  48 2.32  55 2.32   7 3.25   8 3.27
                            24 3.27  15 3.27  20 3.29   4 3.29  11 3.29   3 3.29   5 3.29  29 3.29
   7  0.001  0.250  0.210-  40 2.28  37 2.31  54 2.32  38 2.32  45 2.34  36 2.36  10 3.19  17 3.25
                             6 3.25   1 3.25   2 3.25   5 3.26  21 3.26  14 3.27  24 3.28   8 3.28
   8  0.250  1.000  0.210-  39 2.29  53 2.32  38 2.32  37 2.32  46 2.33  35 2.34  18 3.23   1 3.23
                             9 3.24  22 3.26  13 3.26   5 3.26   6 3.27   2 3.27   7 3.28  23 3.29
   9  0.501  0.992  0.312-  46 2.20  60 2.26  43 2.32  35 2.34  44 2.37  31 3.19  16 3.23   8 3.24
                            26 3.24  18 3.25  15 3.28   2 3.35  10 3.38
  10  0.758  0.249  0.312-  45 2.20  36 2.26  43 2.32  59 2.34  44 2.37   7 3.19  16 3.23  32 3.24
                             1 3.24  17 3.25  15 3.28  25 3.36   9 3.38
  11  0.500  0.250  0.000-  48 2.32  41 2.32  42 2.32  33 2.32  58 2.32  13 3.29  14 3.29  29 3.29
                             6 3.29  20 3.29  28 3.29   4 3.29  12 3.29
  12  0.750  0.000  0.000-  47 2.32  41 2.32  42 2.32  34 2.32  57 2.32  13 3.29  14 3.29  30 3.29
                             5 3.29  19 3.29  27 3.29   3 3.29  11 3.29
  13  0.500  0.000  0.106-  42 2.32  39 2.32  47 2.32  48 2.32  64 2.32  46 2.34   8 3.26  16 3.27
                            31 3.27  27 3.29  11 3.29  12 3.29   4 3.29  30 3.29   6 3.29  22 3.29
  14  0.750  0.250  0.106-  41 2.32  40 2.32  47 2.32  48 2.32  63 2.32  45 2.34  32 3.26  16 3.27
                             7 3.27  28 3.29  11 3.29  12 3.29   3 3.29  29 3.29   5 3.29  21 3.29
  15  0.498  0.251  0.211-  62 2.31  37 2.31  48 2.32  45 2.34  46 2.34  44 2.37  25 3.25   2 3.25
                            24 3.26   6 3.27  29 3.27   9 3.28  10 3.28  32 3.29   8 3.29  13 3.29
  16  0.750  1.000  0.210-  47 2.29  45 2.32  46 2.32  61 2.33  38 2.33  43 2.34  10 3.23   9 3.23
                            26 3.24   1 3.24  30 3.26   5 3.26  13 3.27  14 3.27  23 3.28  31 3.30
  17  0.000  0.501  0.312-  54 2.23  51 2.26  52 2.32  59 2.34  36 2.34  24 3.23  23 3.23  32 3.23
                             7 3.25  10 3.25  18 3.27  26 3.27   2 3.28
  18  0.249  0.750  0.312-  53 2.23  51 2.26  52 2.32  35 2.33  60 2.34  24 3.23   8 3.23  23 3.23
                            31 3.24   9 3.25   1 3.26  17 3.27  25 3.28
  19  0.000  0.750  0.000-  56 2.32  49 2.32  50 2.32  34 2.32  57 2.32  21 3.29  22 3.29  30 3.29
                             5 3.29  12 3.29  28 3.29  20 3.29   4 3.29
  20  0.250  0.500  0.000-  55 2.32  49 2.32  50 2.32  33 2.32  58 2.32  21 3.29  22 3.29  29 3.29
                             6 3.29  11 3.29  27 3.29  19 3.29   3 3.29
  21  0.000  0.500  0.106-  54 2.31  50 2.32  40 2.32  55 2.32  56 2.32  63 2.32  23 3.26   7 3.26
                            32 3.26  24 3.27  28 3.29  20 3.29   3 3.29  19 3.29  30 3.29   6 3.29
  22  0.250  0.750  0.106-  53 2.31  49 2.32  39 2.32  55 2.32  56 2.32  64 2.32  31 3.26  23 3.26
                             8 3.26  24 3.27  27 3.29  20 3.29   4 3.29  19 3.29  29 3.29   5 3.29
  23  1.000  0.750  0.210-  56 2.28  61 2.32  38 2.32  54 2.33  53 2.33  52 2.35  17 3.23  18 3.23
                             1 3.23  26 3.23  30 3.25   5 3.26  21 3.26  22 3.26  16 3.28  32 3.28
  24  0.250  0.499  0.210-  51 2.28  55 2.30  37 2.32  62 2.32  54 2.33  53 2.33  18 3.23  17 3.23
                            25 3.26   2 3.26  15 3.26   6 3.27  29 3.27  21 3.27  22 3.27   7 3.28
  25  0.500  0.501  0.314-  62 2.27  60 2.30  65 2.31  59 2.32  44 2.38  51 2.38  15 3.25  31 3.25
                            24 3.26  32 3.27  26 3.28  18 3.28   2 3.31  10 3.36
  26  0.751  0.749  0.313-  65 2.11  61 2.22  52 2.31  59 2.31  43 2.33  60 2.33  32 3.23  23 3.23
                             9 3.24  16 3.24  31 3.25  17 3.27  25 3.28   1 3.28
  27  0.500  0.750  0.000-  64 2.32  49 2.32  57 2.32  58 2.32  42 2.32  22 3.29  29 3.29  30 3.29
                            13 3.29  28 3.29   4 3.29  20 3.29  12 3.29
  28  0.750  0.500  0.000-  63 2.32  50 2.32  57 2.32  58 2.32  41 2.32  21 3.29  29 3.29  30 3.29
                            14 3.29  27 3.29   3 3.29  19 3.29  11 3.29
  29  0.500  0.500  0.106-  62 2.31  58 2.32  48 2.32  55 2.32  63 2.32  64 2.32  31 3.25  32 3.27
                            24 3.27  15 3.27  20 3.29  11 3.29  27 3.29  28 3.29   6 3.29  14 3.29
  30  0.750  0.750  0.106-  61 2.32  57 2.32  47 2.32  56 2.32  63 2.32  64 2.32  23 3.25  31 3.26
                            16 3.26  32 3.27  19 3.29  12 3.29  27 3.29  28 3.29   5 3.29  13 3.29
  31  0.500  0.748  0.210-  64 2.28  62 2.31  53 2.32  61 2.32  46 2.34  60 2.36   9 3.19  18 3.24
                            29 3.25  26 3.25  25 3.25  30 3.26  22 3.26  13 3.27  24 3.28  32 3.28
  32  0.750  0.500  0.210-  63 2.29  54 2.32  61 2.32  62 2.32  45 2.33  59 2.34  26 3.23  17 3.23
                            10 3.24  14 3.26  21 3.26  29 3.27  30 3.27  25 3.27  31 3.28  23 3.28
  33  0.250  0.250  0.000-   6 2.32   4 2.32   3 2.32  11 2.32  20 2.32
  34  0.000  0.000  0.000-   5 2.32   4 2.32   3 2.32  12 2.32  19 2.32
  35  0.249  0.000  0.317-   1 2.31   2 2.32  18 2.33   9 2.34   8 2.34
  36  0.002  0.249  0.317-  10 2.26   2 2.30   1 2.33  17 2.34   7 2.36
  37  0.250  0.249  0.211-   2 2.27   7 2.31  15 2.31   6 2.32   8 2.32  24 2.32
  38  0.001  1.000  0.211-   1 2.22   8 2.32   5 2.32  23 2.32   7 2.32  16 2.33
  39  0.250  0.000  0.106-   8 2.29   4 2.32   6 2.32   5 2.32  13 2.32  22 2.32
  40  0.000  0.250  0.106-   7 2.28   3 2.32   6 2.32   5 2.32  14 2.32  21 2.32
  41  0.750  0.250  0.000-  14 2.32  11 2.32  12 2.32   3 2.32  28 2.32
  42  0.500  0.000  0.000-  13 2.32  11 2.32  12 2.32   4 2.32  27 2.32
  43  0.751  0.999  0.317-  10 2.32   9 2.32  26 2.33   1 2.33  16 2.34
  44  0.504  0.246  0.319-   9 2.37  10 2.37  15 2.37   2 2.38  25 2.38
  45  0.750  0.250  0.212-  10 2.20  16 2.32  32 2.33  14 2.34  15 2.34   7 2.34
  46  0.500  0.000  0.212-   9 2.20  16 2.32   8 2.33  13 2.34  15 2.34  31 2.34
  47  0.750  0.000  0.106-  16 2.29  12 2.32  13 2.32  14 2.32   5 2.32  30 2.32
  48  0.500  0.250  0.106-  15 2.32  11 2.32  13 2.32  14 2.32   6 2.32  29 2.32
  49  0.250  0.750  0.000-  22 2.32  19 2.32  20 2.32   4 2.32  27 2.32
  50  0.000  0.500  0.000-  21 2.32  19 2.32  20 2.32   3 2.32  28 2.32
  51  0.244  0.506  0.314-  18 2.26  17 2.26  24 2.28  25 2.38   2 2.39
  52  0.999  0.750  0.316-   1 2.31  26 2.31  17 2.32  18 2.32  23 2.35
  53  0.250  0.750  0.211-  18 2.23  22 2.31   8 2.32  31 2.32  23 2.33  24 2.33
  54  1.000  0.500  0.211-  17 2.23  21 2.31  32 2.32   7 2.32  23 2.33  24 2.33
  55  0.250  0.500  0.106-  24 2.30  20 2.32  21 2.32  22 2.32   6 2.32  29 2.32
  56  0.000  0.750  0.106-  23 2.28  19 2.32  21 2.32  22 2.32   5 2.32  30 2.32
  57  0.750  0.750  0.000-  30 2.32  19 2.32  27 2.32  28 2.32  12 2.32
  58  0.500  0.500  0.000-  29 2.32  20 2.32  27 2.32  28 2.32  11 2.32
  59  0.749  0.500  0.317-  65 1.44  26 2.31  25 2.32  17 2.34  10 2.34  32 2.34
  60  0.500  0.748  0.317-   9 2.26  25 2.30  26 2.33  18 2.34  31 2.36
  61  0.750  0.749  0.211-  26 2.22  32 2.32  23 2.32  30 2.32  31 2.32  16 2.33
  62  0.500  0.500  0.211-  25 2.27  31 2.31  15 2.31  29 2.31  32 2.32  24 2.32
  63  0.750  0.500  0.106-  32 2.29  28 2.32  14 2.32  29 2.32  30 2.32  21 2.32
  64  0.500  0.750  0.106-  31 2.28  27 2.32  13 2.32  29 2.32  30 2.32  22 2.32
  65  0.698  0.575  0.370-  59 1.44  26 2.11  25 2.31
 
  LATTYP: Found a simple tetragonal cell.
 ALAT       =     9.2947998047
 C/A-ratio  =     2.3638056026
  
  Lattice vectors:
  
 A1 = (   9.2947998047,   0.0000000000,   0.0000000000)
 A2 = (   0.0000000000,   9.2947998047,   0.0000000000)
 A3 = (   0.0000000000,   0.0000000000,  21.9710998535)


Analysis of symmetry for initial positions (statically):
=====================================================================
 Subroutine PRICEL returns:
 Original cell was already a primitive cell.
 

 Routine SETGRP: Setting up the symmetry group for a 
 simple tetragonal supercell.


 Subroutine GETGRP returns: Found  1 space group operations
 (whereof  1 operations were pure point group operations)
 out of a pool of 16 trial point group operations.


The static configuration has the point symmetry C_1 .


Analysis of symmetry for dynamics (positions and initial velocities):
=====================================================================
 Subroutine PRICEL returns:
 Original cell was already a primitive cell.
 

 Routine SETGRP: Setting up the symmetry group for a 
 simple tetragonal supercell.


 Subroutine GETGRP returns: Found  1 space group operations
 (whereof  1 operations were pure point group operations)
 out of a pool of 16 trial point group operations.


The dynamic configuration has the point symmetry C_1 .


Analysis of constrained symmetry for selective dynamics:
=====================================================================
 Subroutine PRICEL returns:
 Original cell was already a primitive cell.
 

 Routine SETGRP: Setting up the symmetry group for a 
 simple tetragonal supercell.


 Subroutine GETGRP returns: Found  1 space group operations
 (whereof  1 operations were pure point group operations)
 out of a pool of 16 trial point group operations.


The constrained configuration has the point symmetry C_1 .


 Subroutine INISYM returns: Found  1 space group operations
 (whereof  1 operations are pure point group operations),
 and found     1 'primitive' translations

 
 
 KPOINTS: KP                                      

Automatic generation of k-mesh.
Space group operators:
 irot       det(A)        alpha          n_x          n_y          n_z        tau_x        tau_y        tau_z
    1     1.000000     0.000000     1.000000     0.000000     0.000000     0.000000     0.000000     0.000000
 
 Subroutine IBZKPT returns following result:
 ===========================================
 
 Found      8 irreducible k-points:
 
 Following reciprocal coordinates:
            Coordinates               Weight
  0.125000  0.125000  0.000000      2.000000
  0.375000  0.125000  0.000000      2.000000
 -0.375000  0.125000  0.000000      2.000000
 -0.125000  0.125000  0.000000      2.000000
  0.125000  0.375000  0.000000      2.000000
  0.375000  0.375000  0.000000      2.000000
 -0.375000  0.375000  0.000000      2.000000
 -0.125000  0.375000  0.000000      2.000000
 
 Following cartesian coordinates:
            Coordinates               Weight
  0.013448  0.013448  0.000000      2.000000
  0.040345  0.013448  0.000000      2.000000
 -0.040345  0.013448  0.000000      2.000000
 -0.013448  0.013448  0.000000      2.000000
  0.013448  0.040345  0.000000      2.000000
  0.040345  0.040345  0.000000      2.000000
 -0.040345  0.040345  0.000000      2.000000
 -0.013448  0.040345  0.000000      2.000000
 


--------------------------------------------------------------------------------------------------------




 Dimension of arrays:
   k-points           NKPTS =      8   k-points in BZ     NKDIM =      8   number of bands    NBANDS=    272
   number of dos      NEDOS =    301   number of ions     NIONS =     65
   non local maximal  LDIM  =      6   non local SUM 2l+1 LMDIM =     18
   total plane-waves  NPLWV = 367416
   max r-space proj   IRMAX =   2500   max aug-charges    IRDMAX=  10925
   dimension x,y,z NGX =    54 NGY =   54 NGZ =  126
   dimension x,y,z NGXF=   108 NGYF=  108 NGZF=  252
   support grid    NGXF=   108 NGYF=  108 NGZF=  252
   ions per type =              32  32   1
   NGX,Y,Z   is equivalent  to a cutoff of   9.66,  9.66,  9.53 a.u.
   NGXF,Y,Z  is equivalent  to a cutoff of  19.32, 19.32, 19.07 a.u.

 SYSTEM =  ZrC (100)                               
 POSCAR =  hfc_pristine_initial\(2)                

 Startparameter for this run:
   NWRITE =      0    write-flag & timer
   PREC   = normal    normal or accurate (medium, high low for compatibility)
   ISTART =      0    job   : 0-new  1-cont  2-samecut
   ICHARG =      2    charge: 1-file 2-atom 10-const
   ISPIN  =      1    spin polarized calculation?
   LNONCOLLINEAR =      F non collinear calculations
   LSORBIT =      F    spin-orbit coupling
   INIWAV =      1    electr: 0-lowe 1-rand  2-diag
   LASPH  =      F    aspherical Exc in radial PAW
   METAGGA=      F    non-selfconsistent MetaGGA calc.

 Electronic Relaxation 1
   ENCUT  =  520.0 eV  38.22 Ry    6.18 a.u.  17.28 17.28 40.85*2*pi/ulx,y,z
   ENINI  =  520.0     initial cutoff
   ENAUG  =  644.9 eV  augmentation charge cutoff
   NELM   =    150;   NELMIN=  2; NELMDL= -5     # of ELM steps 
   EDIFF  = 0.1E-08   stopping-criterion for ELM
   LREAL  =      T    real-space projection
   NLSPLINE    = F    spline interpolate recip. space projectors
   LCOMPAT=      F    compatible to vasp.4.4
   GGA_COMPAT  = T    GGA compatible to vasp.4.4-vasp.4.6
   LMAXPAW     = -100 max onsite density
   LMAXMIX     =    2 max onsite mixed and CHGCAR
   VOSKOWN=      0    Vosko Wilk Nusair interpolation
   ROPT   =   -0.00050  -0.00050  -0.00050
 Ionic relaxation
   EDIFFG = -.1E-01   stopping-criterion for IOM
   NSW    =    100    number of steps for IOM
   NBLOCK =      1;   KBLOCK =    100    inner block; outer block 
   IBRION =      2    ionic relax: 0-MD 1-quasi-New 2-CG
   NFREE  =      1    steps in history (QN), initial steepest desc. (CG)
   ISIF   =      2    stress and relaxation
   IWAVPR =     11    prediction:  0-non 1-charg 2-wave 3-comb
   ISYM   =      2    0-nonsym 1-usesym 2-fastsym
   LCORR  =      T    Harris-Foulkes like correction to forces

   POTIM  = 0.5000    time-step for ionic-motion
   TEIN   =    0.0    initial temperature
   TEBEG  =    0.0;   TEEND  =   0.0 temperature during run
   SMASS  =  -3.00    Nose mass-parameter (am)
   estimated Nose-frequenzy (Omega)   =  0.10E-29 period in steps =****** mass=  -0.197E-26a.u.
   SCALEE = 1.0000    scale energy and forces
   NPACO  =    256;   APACO  = 16.0  distance and # of slots for P.C.
   PSTRESS=    0.0 pullay stress

  Mass of Ions in am
   POMASS = 178.49 12.01 16.00
  Ionic Valenz
   ZVAL   =  10.00  4.00  6.00
  Atomic Wigner-Seitz radii
   RWIGS  =  -1.00 -1.00 -1.00
  virtual crystal weights 
   VCA    =   1.00  1.00  1.00
   NELECT =     454.0000    total number of electrons
   NUPDOWN=      -1.0000    fix difference up-down

 DOS related values:
   EMIN   =  10.00;   EMAX   =-10.00  energy-range for DOS
   EFERMI =   0.00
   ISMEAR =     0;   SIGMA  =   0.05  broadening in eV -4-tet -1-fermi 0-gaus

 Electronic relaxation 2 (details)
   IALGO  =     38    algorithm
   LDIAG  =      T    sub-space diagonalisation (order eigenvalues)
   LSUBROT=      F    optimize rotation matrix (better conditioning)
   TURBO    =      0    0=normal 1=particle mesh
   IRESTART =      0    0=no restart 2=restart with 2 vectors
   NREBOOT  =      0    no. of reboots
   NMIN     =      0    reboot dimension
   EREF     =   0.00    reference energy to select bands
   IMIX   =      4    mixing-type and parameters
     AMIX     =   0.40;   BMIX     =  1.00
     AMIX_MAG =   1.60;   BMIX_MAG =  1.00
     AMIN     =   0.10
     WC   =   100.;   INIMIX=   1;  MIXPRE=   1;  MAXMIX= -45

 Intra band minimization:
   WEIMIN = 0.0010     energy-eigenvalue tresh-hold
   EBREAK =  0.92E-12  absolut break condition
   DEPER  =   0.30     relativ break condition  

   TIME   =   0.40     timestep for ELM

  volume/ion in A,a.u.               =      29.20       197.07
  Fermi-wavevector in a.u.,A,eV,Ry     =   1.016208  1.920356 14.050460  1.032680
  Thomas-Fermi vector in A             =   2.149539
 
 Write flags
   LWAVE        =      F    write WAVECAR
   LDOWNSAMPLE  =      F    k-point downsampling of WAVECAR
   LCHARG       =      F    write CHGCAR
   LVTOT        =      F    write LOCPOT, total local potential
   LVHAR        =      F    write LOCPOT, Hartree potential only
   LELF         =      F    write electronic localiz. function (ELF)
   LORBIT       =      0    0 simple, 1 ext, 2 COOP (PROOUT), +10 PAW based schemes


 Dipole corrections
   LMONO  =      F    monopole corrections only (constant potential shift)
   LDIPOL =      F    correct potential (dipole corrections)
   IDIPOL =      0    1-x, 2-y, 3-z, 4-all directions 
   EPSILON=  1.0000000 bulk dielectric constant

 Exchange correlation treatment:
   GGA     =    PE    GGA type
   LEXCH   =     8    internal setting for exchange type
   VOSKOWN=      0    Vosko Wilk Nusair interpolation
   LHFCALC =     F    Hartree Fock is set to
   LHFONE  =     F    Hartree Fock one center treatment
   AEXX    =    0.0000 exact exchange contribution

 Linear response parameters
   LEPSILON=     F    determine dielectric tensor
   LRPA    =     F    only Hartree local field effects (RPA)
   LNABLA  =     F    use nabla operator in PAW spheres
   LVEL    =     F    velocity operator in full k-point grid
   LINTERFAST=   F  fast interpolation
   KINTER  =     0    interpolate to denser k-point grid
   CSHIFT  =0.1000    complex shift for real part using Kramers Kronig
   OMEGAMAX=  -1.0    maximum frequency
   DEG_THRESHOLD= 0.2000000E-02 threshold for treating states as degnerate
   RTIME   =   -0.100 relaxation time in fs
  (WPLASMAI=    0.000 imaginary part of plasma frequency in eV, 0.658/RTIME)
   DFIELD  = 0.0000000 0.0000000 0.0000000 field for delta impulse in time
 
 Orbital magnetization related:
   ORBITALMAG=     F  switch on orbital magnetization
   LCHIMAG   =     F  perturbation theory with respect to B field
   DQ        =  0.001000  dq finite difference perturbation B field
   LLRAUG    =     F  two centre corrections for induced B field



--------------------------------------------------------------------------------------------------------


 conjugate gradient relaxation of ions
   using selective dynamics as specified on POSCAR
 charge density and potential will be updated during run
 non-spin polarized calculation
 Variant of blocked Davidson
 Davidson routine will perform the subspace rotation
 perform sub-space diagonalisation
    after iterative eigenvector-optimisation
 modified Broyden-mixing scheme, WC =      100.0
 initial mixing is a Kerker type mixing with AMIX =  0.4000 and BMIX =      1.0000
 Hartree-type preconditioning will be used
 using additional bands           45
 real space projection scheme for non local part
 use partial core corrections
 calculate Harris-corrections to forces 
   (improved forces if not selfconsistent)
 use gradient corrections 
 use of overlap-Matrix (Vanderbilt PP)
 Gauss-broadening in eV      SIGMA  =   0.05


--------------------------------------------------------------------------------------------------------


  energy-cutoff  :      520.00
  volume of cell :     1898.16
      direct lattice vectors                 reciprocal lattice vectors
     9.294799805  0.000000000  0.000000000     0.107587040  0.000000000  0.000000000
     0.000000000  9.294799805  0.000000000     0.000000000  0.107587040  0.000000000
     0.000000000  0.000000000 21.971099854     0.000000000  0.000000000  0.045514335

  length of vectors
     9.294799805  9.294799805 21.971099854     0.107587040  0.107587040  0.045514335


 
 k-points in units of 2pi/SCALE and weight: KP                                      
   0.01344838  0.01344838  0.00000000       0.125
   0.04034514  0.01344838  0.00000000       0.125
  -0.04034514  0.01344838  0.00000000       0.125
  -0.01344838  0.01344838  0.00000000       0.125
   0.01344838  0.04034514  0.00000000       0.125
   0.04034514  0.04034514  0.00000000       0.125
  -0.04034514  0.04034514  0.00000000       0.125
  -0.01344838  0.04034514  0.00000000       0.125
 
 k-points in reciprocal lattice and weights: KP                                      
   0.12500000  0.12500000  0.00000000       0.125
   0.37500000  0.12500000  0.00000000       0.125
  -0.37500000  0.12500000  0.00000000       0.125
  -0.12500000  0.12500000  0.00000000       0.125
   0.12500000  0.37500000  0.00000000       0.125
   0.37500000  0.37500000  0.00000000       0.125
  -0.37500000  0.37500000  0.00000000       0.125
  -0.12500000  0.37500000  0.00000000       0.125
 
 position of ions in fractional coordinates (direct lattice) 
   0.00101000  0.99858000  0.31263000
   0.24867000  0.24982000  0.31454000
   0.00000000  0.25000000  0.00000000
   0.25000000  0.00000000  0.00000000
   0.00000000  0.00000000  0.10576000
   0.25000000  0.25000000  0.10576000
   0.00141000  0.24986000  0.20968000
   0.25003000  0.99967000  0.21004000
   0.50084000  0.99164000  0.31226000
   0.75831000  0.24897000  0.31228000
   0.50000000  0.25000000  0.00000000
   0.75000000  0.00000000  0.00000000
   0.50000000  0.00000000  0.10576000
   0.75000000  0.25000000  0.10576000
   0.49843000  0.25147000  0.21118000
   0.75032000  0.99954000  0.21003000
   0.00031000  0.50113000  0.31225000
   0.24882000  0.74966000  0.31219000
   0.00000000  0.75000000  0.00000000
   0.25000000  0.50000000  0.00000000
   0.00000000  0.50000000  0.10576000
   0.25000000  0.75000000  0.10576000
   0.99974000  0.75004000  0.20961000
   0.25045000  0.49940000  0.21047000
   0.50002000  0.50137000  0.31447000
   0.75113000  0.74900000  0.31261000
   0.50000000  0.75000000  0.00000000
   0.75000000  0.50000000  0.00000000
   0.50000000  0.50000000  0.10576000
   0.75000000  0.75000000  0.10576000
   0.50005000  0.74844000  0.20966000
   0.75017000  0.49981000  0.21008000
   0.25000000  0.25000000  0.00000000
   0.00000000  0.00000000  0.00000000
   0.24942000  0.00048000  0.31666000
   0.00151000  0.24946000  0.31700000
   0.24971000  0.24942000  0.21117000
   0.00050000  0.99978000  0.21138000
   0.25000000  0.00000000  0.10576000
   0.00000000  0.25000000  0.10576000
   0.75000000  0.25000000  0.00000000
   0.50000000  0.00000000  0.00000000
   0.75054000  0.99933000  0.31657000
   0.50431000  0.24560000  0.31903000
   0.74986000  0.24954000  0.21206000
   0.50029000  0.00003000  0.21207000
   0.75000000  0.00000000  0.10576000
   0.50000000  0.25000000  0.10576000
   0.25000000  0.75000000  0.00000000
   0.00000000  0.50000000  0.00000000
   0.24363000  0.50639000  0.31397000
   0.99945000  0.75040000  0.31648000
   0.25007000  0.75029000  0.21091000
   0.99963000  0.49982000  0.21093000
   0.25000000  0.50000000  0.10576000
   0.00000000  0.75000000  0.10576000
   0.75000000  0.75000000  0.00000000
   0.50000000  0.50000000  0.00000000
   0.74927000  0.50046000  0.31668000
   0.50039000  0.74842000  0.31694000
   0.75013000  0.74941000  0.21138000
   0.50046000  0.50018000  0.21112000
   0.75000000  0.50000000  0.10576000
   0.50000000  0.75000000  0.10576000
   0.69765000  0.57483000  0.36999000
 
 position of ions in cartesian coordinates  (Angst):
   0.00938775  9.28160119  6.86882495
   2.31133787  2.32202689  6.91078975
   0.00000000  2.32369995  0.00000000
   2.32369995  0.00000000  0.00000000
   0.00000000  0.00000000  2.32366352
   2.32369995  2.32369995  2.32366352
   0.01310567  2.32239868  4.60690022
   2.32397880  9.29173252  4.61480981
   4.65520753  9.21709528  6.86069564
   7.04833964  2.31412631  6.86113506
   4.64739990  2.32369995  0.00000000
   6.97109985  0.00000000  0.00000000
   4.64739990  0.00000000  2.32366352
   6.97109985  2.32369995  2.32366352
   4.63280707  2.33736331  4.63985687
   6.97407419  9.29052420  4.61459010
   0.00288139  4.65790303  6.86047593
   2.31273209  6.96793962  6.85915766
   0.00000000  6.97109985  0.00000000
   2.32369995  4.64739990  0.00000000
   0.00000000  4.64739990  2.32366352
   2.32369995  6.97109985  2.32366352
   9.29238316  6.97147165  4.60536224
   2.32788261  4.64182302  4.62425739
   4.64758580  4.66013378  6.90925177
   6.98160298  6.96180505  6.86838553
   4.64739990  6.97109985  0.00000000
   6.97109985  4.64739990  0.00000000
   4.64739990  4.64739990  2.32366352
   6.97109985  6.97109985  2.32366352
   4.64786464  6.95659997  4.60646080
   6.97267997  4.64563389  4.61568866
   2.32369995  2.32369995  0.00000000
   0.00000000  0.00000000  0.00000000
   2.31830897  0.00446150  6.95736848
   0.01403515  2.31868076  6.96483865
   2.32100446  2.31830897  4.63963716
   0.00464740  9.29275495  4.64425109
   2.32369995  0.00000000  2.32366352
   0.00000000  2.32369995  2.32366352
   6.97109985  2.32369995  0.00000000
   4.64739990  0.00000000  0.00000000
   6.97611905  9.28857229  6.95539108
   4.68746049  2.28280283  7.00943999
   6.96979858  2.31942434  4.65919143
   4.65009539  0.00027884  4.65941115
   6.97109985  0.00000000  2.32366352
   4.64739990  2.32369995  2.32366352
   2.32369995  6.97109985  0.00000000
   0.00000000  4.64739990  0.00000000
   2.26449208  4.70679367  6.89826622
   9.28968766  6.97481777  6.95341368
   2.32435059  6.97379535  4.63392467
   9.29136073  4.64572684  4.63436409
   2.32369995  4.64739990  2.32366352
   0.00000000  6.97109985  2.32366352
   6.97109985  6.97109985  0.00000000
   4.64739990  4.64739990  0.00000000
   6.96431465  4.65167551  6.95780790
   4.65102487  6.95641407  6.96352039
   6.97230818  6.96561592  4.64425109
   4.65167551  4.64907297  4.63853860
   6.97109985  4.64739990  2.32366352
   4.64739990  6.97109985  2.32366352
   6.48451708  5.34292977  8.12908723
 


--------------------------------------------------------------------------------------------------------


 k-point  1 :   0.1250 0.1250 0.0000  plane waves:   51155
 k-point  2 :   0.3750 0.1250 0.0000  plane waves:   51108
 k-point  3 :  -0.3750 0.1250 0.0000  plane waves:   51108
 k-point  4 :  -0.1250 0.1250 0.0000  plane waves:   51155
 k-point  5 :   0.1250 0.3750 0.0000  plane waves:   51108
 k-point  6 :   0.3750 0.3750 0.0000  plane waves:   51086
 k-point  7 :  -0.3750 0.3750 0.0000  plane waves:   51086
 k-point  8 :  -0.1250 0.3750 0.0000  plane waves:   51108

 maximum and minimum number of plane-waves per node :      6418     6366

 maximum number of plane-waves:     51155
 maximum index in each direction: 
   IXMAX=   17   IYMAX=   17   IZMAX=   40
   IXMIN=  -17   IYMIN=  -17   IZMIN=  -40


 real space projection operators:
  total allocation   :      12553.39 KBytes
  max/ min on nodes  :       1672.11       1320.16


 parallel 3D FFT for wavefunctions:
    minimum data exchange during FFTs selected (reduces bandwidth)
 parallel 3D FFT for charge:
    minimum data exchange during FFTs selected (reduces bandwidth)


 total amount of memory used by VASP MPI-rank0    71890. kBytes
=======================================================================

   base      :      30000. kBytes
   nonlr-proj:       4720. kBytes
   fftplans  :       3241. kBytes
   grid      :       5415. kBytes
   one-center:        139. kBytes
   wavefun   :      28375. kBytes
 
     INWAV:  cpu time    0.0002: real time    0.0005
 Broyden mixing: mesh for mixing (old mesh)
   NGX = 35   NGY = 35   NGZ = 81
  (NGX  =108   NGY  =108   NGZ  =252)
  gives a total of  99225 points

 initial charge density was supplied:
 charge density of overlapping atoms calculated
 number of electron     454.0000000 magnetization 
 keeping initial charge density in first step


--------------------------------------------------------------------------------------------------------


 Maximum index for non-local projection operator          336
 Maximum index for augmentation-charges          577 (set IRDMAX)


--------------------------------------------------------------------------------------------------------


 First call to EWALD:  gamma=   0.143
 Maximum number of real-space cells 3x 3x 2
 Maximum number of reciprocal cells 2x 2x 4

    FEWALD:  cpu time    0.0098: real time    0.0098


--------------------------------------- Iteration      1(   1)  ---------------------------------------


    POTLOK:  cpu time    0.2269: real time    0.2386
    SETDIJ:  cpu time    0.0400: real time    0.0404
     EDDAV:  cpu time   43.4798: real time   43.9504
       DOS:  cpu time    0.0057: real time    0.0057
    --------------------------------------------
      LOOP:  cpu time   43.7525: real time   44.2353

 eigenvalue-minimisations  :  5136
 total energy-change (2. order) : 0.2922799E+04  (-0.2378752E+05)
 number of electron     454.0000000 magnetization 
 augmentation part      454.0000000 magnetization 

 Free energy of the ion-electron system (eV)
  ---------------------------------------------------
  alpha Z        PSCENC =      1612.12532183
  Ewald energy   TEWEN  =    105877.77580464
  -Hartree energ DENC   =   -134611.50422669
  -exchange      EXHF   =         0.00000000
  -V(xc)+E(xc)   XCENC  =      1106.42031636
  PAW double counting   =     24843.15204238   -24459.39875585
  entropy T*S    EENTRO =        -0.01411409
  eigenvalues    EBANDS =     -4136.30054735
  atomic energy  EATOM  =     32690.54280978
  Solvation  Ediel_sol  =         0.00000000
  ---------------------------------------------------
  free energy    TOTEN  =      2922.79865102 eV

  energy without entropy =     2922.81276512  energy(sigma->0) =     2922.80570807


--------------------------------------------------------------------------------------------------------




--------------------------------------- Iteration      1(   2)  ---------------------------------------


     EDDAV:  cpu time   44.0370: real time   44.4791
       DOS:  cpu time    0.0048: real time    0.0048
    --------------------------------------------
      LOOP:  cpu time   44.0418: real time   44.4839

 eigenvalue-minimisations  :  5200
 total energy-change (2. order) :-0.3377014E+04  (-0.3267509E+04)
 number of electron     454.0000000 magnetization 
 augmentation part      454.0000000 magnetization 

 Free energy of the ion-electron system (eV)
  ---------------------------------------------------
  alpha Z        PSCENC =      1612.12532183
  Ewald energy   TEWEN  =    105877.77580464
  -Hartree energ DENC   =   -134611.50422669
  -exchange      EXHF   =         0.00000000
  -V(xc)+E(xc)   XCENC  =      1106.42031636
  PAW double counting   =     24843.15204238   -24459.39875585
  entropy T*S    EENTRO =        -0.01173958
  eigenvalues    EBANDS =     -7513.31660076
  atomic energy  EATOM  =     32690.54280978
  Solvation  Ediel_sol  =         0.00000000
  ---------------------------------------------------
  free energy    TOTEN  =      -454.21502788 eV

  energy without entropy =     -454.20328830  energy(sigma->0) =     -454.20915809


--------------------------------------------------------------------------------------------------------




--------------------------------------- Iteration      1(   3)  ---------------------------------------


     EDDAV:  cpu time   44.7440: real time   44.8593
       DOS:  cpu time    0.0042: real time    0.0042
    --------------------------------------------
      LOOP:  cpu time   44.7483: real time   44.8635

 eigenvalue-minimisations  :  5328
 total energy-change (2. order) :-0.3140192E+03  (-0.3062958E+03)
 number of electron     454.0000000 magnetization 
 augmentation part      454.0000000 magnetization 

 Free energy of the ion-electron system (eV)
  ---------------------------------------------------
  alpha Z        PSCENC =      1612.12532183
  Ewald energy   TEWEN  =    105877.77580464
  -Hartree energ DENC   =   -134611.50422669
  -exchange      EXHF   =         0.00000000
  -V(xc)+E(xc)   XCENC  =      1106.42031636
  PAW double counting   =     24843.15204238   -24459.39875585
  entropy T*S    EENTRO =        -0.00192168
  eigenvalues    EBANDS =     -7827.34566370
  atomic energy  EATOM  =     32690.54280978
  Solvation  Ediel_sol  =         0.00000000
  ---------------------------------------------------
  free energy    TOTEN  =      -768.23427292 eV

  energy without entropy =     -768.23235123  energy(sigma->0) =     -768.23331207


--------------------------------------------------------------------------------------------------------




--------------------------------------- Iteration      1(   4)  ---------------------------------------


     EDDAV:  cpu time   46.2164: real time   46.5730
       DOS:  cpu time    0.0040: real time    0.0040
    --------------------------------------------
      LOOP:  cpu time   46.2204: real time   46.5771

 eigenvalue-minimisations  :  5528
 total energy-change (2. order) :-0.1452746E+02  (-0.1445847E+02)
 number of electron     454.0000000 magnetization 
 augmentation part      454.0000000 magnetization 

 Free energy of the ion-electron system (eV)
  ---------------------------------------------------
  alpha Z        PSCENC =      1612.12532183
  Ewald energy   TEWEN  =    105877.77580464
  -Hartree energ DENC   =   -134611.50422669
  -exchange      EXHF   =         0.00000000
  -V(xc)+E(xc)   XCENC  =      1106.42031636
  PAW double counting   =     24843.15204238   -24459.39875585
  entropy T*S    EENTRO =        -0.00037140
  eigenvalues    EBANDS =     -7841.87467690
  atomic energy  EATOM  =     32690.54280978
  Solvation  Ediel_sol  =         0.00000000
  ---------------------------------------------------
  free energy    TOTEN  =      -782.76173584 eV

  energy without entropy =     -782.76136444  energy(sigma->0) =     -782.76155014


--------------------------------------------------------------------------------------------------------




--------------------------------------- Iteration      1(   5)  ---------------------------------------


     EDDAV:  cpu time   45.5552: real time   46.0066
       DOS:  cpu time    0.0041: real time    0.0042
    CHARGE:  cpu time    1.6965: real time    1.6994
    MIXING:  cpu time    0.0113: real time    0.0117
    --------------------------------------------
      LOOP:  cpu time   47.2671: real time   47.7219

 eigenvalue-minimisations  :  5440
 total energy-change (2. order) :-0.3724879E+00  (-0.3720691E+00)
 number of electron     454.0000077 magnetization 
 augmentation part       88.9693720 magnetization 

 Broyden mixing:
  rms(total) = 0.31182E+02    rms(broyden)= 0.31182E+02
  rms(prec ) = 0.31309E+02
  weight for this iteration     100.00

 Free energy of the ion-electron system (eV)
  ---------------------------------------------------
  alpha Z        PSCENC =      1612.12532183
  Ewald energy   TEWEN  =    105877.77580464
  -Hartree energ DENC   =   -134611.50422669
  -exchange      EXHF   =         0.00000000
  -V(xc)+E(xc)   XCENC  =      1106.42031636
  PAW double counting   =     24843.15204238   -24459.39875585
  entropy T*S    EENTRO =        -0.00035369
  eigenvalues    EBANDS =     -7842.24718254
  atomic energy  EATOM  =     32690.54280978
  Solvation  Ediel_sol  =         0.00000000
  ---------------------------------------------------
  free energy    TOTEN  =      -783.13422376 eV

  energy without entropy =     -783.13387007  energy(sigma->0) =     -783.13404692


--------------------------------------------------------------------------------------------------------




--------------------------------------- Iteration      1(   6)  ---------------------------------------


    POTLOK:  cpu time    0.1652: real time    0.1944
    SETDIJ:  cpu time    0.0385: real time    0.0385
     EDDAV:  cpu time   41.2907: real time   41.5870
       DOS:  cpu time    0.0046: real time    0.0046
    CHARGE:  cpu time    1.6921: real time    1.6948
    MIXING:  cpu time    0.0096: real time    0.0204
    --------------------------------------------
      LOOP:  cpu time   43.2008: real time   43.5397

 eigenvalue-minimisations  :  4800
 total energy-change (2. order) : 0.1167083E+03  (-0.7086334E+02)
 number of electron     453.9999991 magnetization 
 augmentation part       89.4835163 magnetization 

 Broyden mixing:
  rms(total) = 0.21658E+02    rms(broyden)= 0.21658E+02
  rms(prec ) = 0.21675E+02
  weight for this iteration     100.00

 eigenvalues of (default mixing * dielectric matrix)
  average eigenvalue GAMMA=   2.5205
  2.5205

 Free energy of the ion-electron system (eV)
  ---------------------------------------------------
  alpha Z        PSCENC =      1612.12532183
  Ewald energy   TEWEN  =    105877.77580464
  -Hartree energ DENC   =   -134889.40127662
  -exchange      EXHF   =         0.00000000
  -V(xc)+E(xc)   XCENC  =      1119.44704016
  PAW double counting   =     39872.87009171   -39512.64921295
  entropy T*S    EENTRO =        -0.01771743
  eigenvalues    EBANDS =     -7437.11882348
  atomic energy  EATOM  =     32690.54280978
  Solvation  Ediel_sol  =         0.00000000
  ---------------------------------------------------
  free energy    TOTEN  =      -666.42596236 eV

  energy without entropy =     -666.40824493  energy(sigma->0) =     -666.41710364


--------------------------------------------------------------------------------------------------------




--------------------------------------- Iteration      1(   7)  ---------------------------------------


    POTLOK:  cpu time    0.1623: real time    0.1922
    SETDIJ:  cpu time    0.0385: real time    0.0385
     EDDAV:  cpu time   46.2080: real time   46.3293
       DOS:  cpu time    0.0045: real time    0.0045
    CHARGE:  cpu time    1.6899: real time    1.6922
    MIXING:  cpu time    0.0064: real time    0.0081
    --------------------------------------------
      LOOP:  cpu time   48.1097: real time   48.2648

 eigenvalue-minimisations  :  5552
 total energy-change (2. order) :-0.5096439E+01  (-0.1328444E+02)
 number of electron     454.0000010 magnetization 
 augmentation part       89.8257346 magnetization 

 Broyden mixing:
  rms(total) = 0.25423E+01    rms(broyden)= 0.25422E+01
  rms(prec ) = 0.28296E+01
  weight for this iteration     100.00

 eigenvalues of (default mixing * dielectric matrix)
  average eigenvalue GAMMA=   1.7371
  0.9401  2.5341

 Free energy of the ion-electron system (eV)
  ---------------------------------------------------
  alpha Z        PSCENC =      1612.12532183
  Ewald energy   TEWEN  =    105877.77580464
  -Hartree energ DENC   =   -135367.77176369
  -exchange      EXHF   =         0.00000000
  -V(xc)+E(xc)   XCENC  =      1107.37247476
  PAW double counting   =     74636.41430762   -74290.05365634
  entropy T*S    EENTRO =        -0.02481731
  eigenvalues    EBANDS =     -6937.90288243
  atomic energy  EATOM  =     32690.54280978
  Solvation  Ediel_sol  =         0.00000000
  ---------------------------------------------------
  free energy    TOTEN  =      -671.52240112 eV

  energy without entropy =     -671.49758381  energy(sigma->0) =     -671.50999247


--------------------------------------------------------------------------------------------------------




--------------------------------------- Iteration      1(   8)  ---------------------------------------


    POTLOK:  cpu time    0.1648: real time    0.1938
    SETDIJ:  cpu time    0.0385: real time    0.0385
     EDDAV:  cpu time   48.7810: real time   49.1246
       DOS:  cpu time    0.0045: real time    0.0045
    CHARGE:  cpu time    1.6882: real time    1.6905
    MIXING:  cpu time    0.0060: real time    0.0060
    --------------------------------------------
      LOOP:  cpu time   50.6832: real time   51.0579

 eigenvalue-minimisations  :  5896
 total energy-change (2. order) : 0.1083318E+02  (-0.5899582E+01)
 number of electron     454.0000002 magnetization 
 augmentation part       89.9689619 magnetization 

 Broyden mixing:
  rms(total) = 0.19925E+01    rms(broyden)= 0.19925E+01
  rms(prec ) = 0.20295E+01
  weight for this iteration     100.00

 eigenvalues of (default mixing * dielectric matrix)
  average eigenvalue GAMMA=   1.4450
  2.7034  0.9695  0.6622

 Free energy of the ion-electron system (eV)
  ---------------------------------------------------
  alpha Z        PSCENC =      1612.12532183
  Ewald energy   TEWEN  =    105877.77580464
  -Hartree energ DENC   =   -135207.25707497
  -exchange      EXHF   =         0.00000000
  -V(xc)+E(xc)   XCENC  =      1111.33351843
  PAW double counting   =     75767.24585847   -75423.60441690
  entropy T*S    EENTRO =        -0.01677852
  eigenvalues    EBANDS =     -7088.83426701
  atomic energy  EATOM  =     32690.54280978
  Solvation  Ediel_sol  =         0.00000000
  ---------------------------------------------------
  free energy    TOTEN  =      -660.68922424 eV

  energy without entropy =     -660.67244572  energy(sigma->0) =     -660.68083498


--------------------------------------------------------------------------------------------------------




--------------------------------------- Iteration      1(   9)  ---------------------------------------


    POTLOK:  cpu time    0.1648: real time    0.1937
    SETDIJ:  cpu time    0.0371: real time    0.0385
     EDDAV:  cpu time   41.9054: real time   42.2802
       DOS:  cpu time    0.0046: real time    0.0047
    CHARGE:  cpu time    1.6865: real time    1.6891
    MIXING:  cpu time    0.0067: real time    0.0075
    --------------------------------------------
      LOOP:  cpu time   43.8050: real time   44.2136

 eigenvalue-minimisations  :  4896
 total energy-change (2. order) :-0.6133344E+00  (-0.1450189E+01)
 number of electron     454.0000001 magnetization 
 augmentation part       89.9372626 magnetization 

 Broyden mixing:
  rms(total) = 0.12940E+01    rms(broyden)= 0.12939E+01
  rms(prec ) = 0.13148E+01
  weight for this iteration     100.00

 eigenvalues of (default mixing * dielectric matrix)
  average eigenvalue GAMMA=   1.3459
  2.8766  1.0843  0.7113  0.7113

 Free energy of the ion-electron system (eV)
  ---------------------------------------------------
  alpha Z        PSCENC =      1612.12532183
  Ewald energy   TEWEN  =    105877.77580464
  -Hartree energ DENC   =   -135296.92903594
  -exchange      EXHF   =         0.00000000
  -V(xc)+E(xc)   XCENC  =      1112.34559569
  PAW double counting   =     76598.28319786   -76255.11325882
  entropy T*S    EENTRO =        -0.01844183
  eigenvalues    EBANDS =     -7000.31455181
  atomic energy  EATOM  =     32690.54280978
  Solvation  Ediel_sol  =         0.00000000
  ---------------------------------------------------
  free energy    TOTEN  =      -661.30255860 eV

  energy without entropy =     -661.28411676  energy(sigma->0) =     -661.29333768


--------------------------------------------------------------------------------------------------------




--------------------------------------- Iteration      1(  10)  ---------------------------------------


    POTLOK:  cpu time    0.1654: real time    0.1940
    SETDIJ:  cpu time    0.0384: real time    0.0384
     EDDAV:  cpu time   42.5415: real time   43.0038
       DOS:  cpu time    0.0045: real time    0.0045
    CHARGE:  cpu time    1.6907: real time    1.6930
    MIXING:  cpu time    0.0066: real time    0.0066
    --------------------------------------------
      LOOP:  cpu time   44.4471: real time   44.9403

 eigenvalue-minimisations  :  5024
 total energy-change (2. order) : 0.2305023E+00  (-0.2227542E+00)
 number of electron     454.0000001 magnetization 
 augmentation part       89.9107751 magnetization 

 Broyden mixing:
  rms(total) = 0.70499E+00    rms(broyden)= 0.70499E+00
  rms(prec ) = 0.71496E+00
  weight for this iteration     100.00

 eigenvalues of (default mixing * dielectric matrix)
  average eigenvalue GAMMA=   1.2645
  2.8760  1.1180  0.8355  0.8355  0.6575

 Free energy of the ion-electron system (eV)
  ---------------------------------------------------
  alpha Z        PSCENC =      1612.12532183
  Ewald energy   TEWEN  =    105877.77580464
  -Hartree energ DENC   =   -135357.90631594
  -exchange      EXHF   =         0.00000000
  -V(xc)+E(xc)   XCENC  =      1112.94589959
  PAW double counting   =     76073.15514336   -75730.15844347
  entropy T*S    EENTRO =        -0.02372470
  eigenvalues    EBANDS =     -6939.52855139
  atomic energy  EATOM  =     32690.54280978
  Solvation  Ediel_sol  =         0.00000000
  ---------------------------------------------------
  free energy    TOTEN  =      -661.07205628 eV

  energy without entropy =     -661.04833158  energy(sigma->0) =     -661.06019393


--------------------------------------------------------------------------------------------------------




--------------------------------------- Iteration      1(  11)  ---------------------------------------


    POTLOK:  cpu time    0.1944: real time    0.1949
    SETDIJ:  cpu time    0.0385: real time    0.0385
     EDDAV:  cpu time   45.4631: real time   45.6352
       DOS:  cpu time    0.0047: real time    0.0047
    CHARGE:  cpu time    1.6707: real time    1.6984
    MIXING:  cpu time    0.0070: real time    0.0070
    --------------------------------------------
      LOOP:  cpu time   47.3783: real time   47.5787

 eigenvalue-minimisations  :  5432
 total energy-change (2. order) : 0.7806247E-02  (-0.8438351E-01)
 number of electron     454.0000001 magnetization 
 augmentation part       89.8794310 magnetization 

 Broyden mixing:
  rms(total) = 0.36147E+00    rms(broyden)= 0.36146E+00
  rms(prec ) = 0.37302E+00
  weight for this iteration     100.00

 eigenvalues of (default mixing * dielectric matrix)
  average eigenvalue GAMMA=   1.3507
  2.8938  1.8628  1.0771  0.8307  0.8307  0.6092

 Free energy of the ion-electron system (eV)
  ---------------------------------------------------
  alpha Z        PSCENC =      1612.12532183
  Ewald energy   TEWEN  =    105877.77580464
  -Hartree energ DENC   =   -135389.65623418
  -exchange      EXHF   =         0.00000000
  -V(xc)+E(xc)   XCENC  =      1113.44749752
  PAW double counting   =     74871.92342121   -74528.71994436
  entropy T*S    EENTRO =        -0.02151943
  eigenvalues    EBANDS =     -6908.48140704
  atomic energy  EATOM  =     32690.54280978
  Solvation  Ediel_sol  =         0.00000000
  ---------------------------------------------------
  free energy    TOTEN  =      -661.06425003 eV

  energy without entropy =     -661.04273060  energy(sigma->0) =     -661.05349031


--------------------------------------------------------------------------------------------------------




--------------------------------------- Iteration      1(  12)  ---------------------------------------


    POTLOK:  cpu time    0.1972: real time    0.2423
    SETDIJ:  cpu time    0.0386: real time    0.0385
     EDDAV:  cpu time   43.4674: real time   43.5631
       DOS:  cpu time    0.0049: real time    0.0049
    CHARGE:  cpu time    1.6902: real time    1.6928
    MIXING:  cpu time    0.0073: real time    0.0073
    --------------------------------------------
      LOOP:  cpu time   45.4056: real time   45.5490

 eigenvalue-minimisations  :  5160
 total energy-change (2. order) :-0.8363026E-03  (-0.2937903E-01)
 number of electron     454.0000002 magnetization 
 augmentation part       89.8519838 magnetization 

 Broyden mixing:
  rms(total) = 0.10827E+00    rms(broyden)= 0.10826E+00
  rms(prec ) = 0.14413E+00
  weight for this iteration     100.00

 eigenvalues of (default mixing * dielectric matrix)
  average eigenvalue GAMMA=   1.2917
  2.8954  2.0577  1.0510  0.9457  0.7760  0.7760  0.5402

 Free energy of the ion-electron system (eV)
  ---------------------------------------------------
  alpha Z        PSCENC =      1612.12532183
  Ewald energy   TEWEN  =    105877.77580464
  -Hartree energ DENC   =   -135440.53468775
  -exchange      EXHF   =         0.00000000
  -V(xc)+E(xc)   XCENC  =      1114.19723869
  PAW double counting   =     73163.19128706   -72819.69552229
  entropy T*S    EENTRO =        -0.02388255
  eigenvalues    EBANDS =     -6858.64345575
  atomic energy  EATOM  =     32690.54280978
  Solvation  Ediel_sol  =         0.00000000
  ---------------------------------------------------
  free energy    TOTEN  =      -661.06508633 eV

  energy without entropy =     -661.04120378  energy(sigma->0) =     -661.05314506


--------------------------------------------------------------------------------------------------------




--------------------------------------- Iteration      1(  13)  ---------------------------------------


    POTLOK:  cpu time    0.1664: real time    0.1973
    SETDIJ:  cpu time    0.0386: real time    0.0386
     EDDAV:  cpu time   43.1273: real time   43.5236
       DOS:  cpu time    0.0050: real time    0.0050
    CHARGE:  cpu time    1.6994: real time    1.7025
    MIXING:  cpu time    0.0080: real time    0.0080
    --------------------------------------------
      LOOP:  cpu time   45.0448: real time   45.4749

 eigenvalue-minimisations  :  5120
 total energy-change (2. order) : 0.1823646E-01  (-0.1123911E-01)
 number of electron     454.0000001 magnetization 
 augmentation part       89.8407000 magnetization 

 Broyden mixing:
  rms(total) = 0.59388E-01    rms(broyden)= 0.59384E-01
  rms(prec ) = 0.69168E-01
  weight for this iteration     100.00

 eigenvalues of (default mixing * dielectric matrix)
  average eigenvalue GAMMA=   1.2474
  2.7993  1.9939  1.4185  0.8197  0.8197  0.8906  0.7341  0.5033

 Free energy of the ion-electron system (eV)
  ---------------------------------------------------
  alpha Z        PSCENC =      1612.12532183
  Ewald energy   TEWEN  =    105877.77580464
  -Hartree energ DENC   =   -135461.44390673
  -exchange      EXHF   =         0.00000000
  -V(xc)+E(xc)   XCENC  =      1114.28436642
  PAW double counting   =     72852.59202438   -72509.02170632
  entropy T*S    EENTRO =        -0.02239436
  eigenvalues    EBANDS =     -6837.87916951
  atomic energy  EATOM  =     32690.54280978
  Solvation  Ediel_sol  =         0.00000000
  ---------------------------------------------------
  free energy    TOTEN  =      -661.04684987 eV

  energy without entropy =     -661.02445551  energy(sigma->0) =     -661.03565269


--------------------------------------------------------------------------------------------------------




--------------------------------------- Iteration      1(  14)  ---------------------------------------


    POTLOK:  cpu time    0.1973: real time    0.2493
    SETDIJ:  cpu time    0.0385: real time    0.0385
     EDDAV:  cpu time   41.8300: real time   42.1715
       DOS:  cpu time    0.0054: real time    0.0054
    CHARGE:  cpu time    1.6972: real time    1.6997
    MIXING:  cpu time    0.0087: real time    0.0086
    --------------------------------------------
      LOOP:  cpu time   43.7770: real time   44.1731

 eigenvalue-minimisations  :  4944
 total energy-change (2. order) :-0.5017479E-02  (-0.3349067E-02)
 number of electron     454.0000001 magnetization 
 augmentation part       89.8287026 magnetization 

 Broyden mixing:
  rms(total) = 0.52396E-01    rms(broyden)= 0.52396E-01
  rms(prec ) = 0.58575E-01
  weight for this iteration     100.00

 eigenvalues of (default mixing * dielectric matrix)
  average eigenvalue GAMMA=   1.1235
  2.7918  1.9566  1.4616  0.8195  0.8195  0.8881  0.7212  0.5012  0.1516

 Free energy of the ion-electron system (eV)
  ---------------------------------------------------
  alpha Z        PSCENC =      1612.12532183
  Ewald energy   TEWEN  =    105877.77580464
  -Hartree energ DENC   =   -135475.16390294
  -exchange      EXHF   =         0.00000000
  -V(xc)+E(xc)   XCENC  =      1114.29227679
  PAW double counting   =     72768.62997147   -72425.02522903
  entropy T*S    EENTRO =        -0.02265344
  eigenvalues    EBANDS =     -6824.20626644
  atomic energy  EATOM  =     32690.54280978
  Solvation  Ediel_sol  =         0.00000000
  ---------------------------------------------------
  free energy    TOTEN  =      -661.05186735 eV

  energy without entropy =     -661.02921391  energy(sigma->0) =     -661.04054063


--------------------------------------------------------------------------------------------------------




--------------------------------------- Iteration      1(  15)  ---------------------------------------


    POTLOK:  cpu time    0.2021: real time    0.2026
    SETDIJ:  cpu time    0.0397: real time    0.0397
     EDDAV:  cpu time   46.0780: real time   46.5906
       DOS:  cpu time    0.0048: real time    0.0048
    CHARGE:  cpu time    1.6869: real time    1.6955
    MIXING:  cpu time    0.0090: real time    0.0090
    --------------------------------------------
      LOOP:  cpu time   48.0204: real time   48.5422

 eigenvalue-minimisations  :  5544
 total energy-change (2. order) :-0.2312649E-02  (-0.5351967E-03)
 number of electron     454.0000001 magnetization 
 augmentation part       89.8280158 magnetization 

 Broyden mixing:
  rms(total) = 0.28160E-01    rms(broyden)= 0.28160E-01
  rms(prec ) = 0.36231E-01
  weight for this iteration     100.00

 eigenvalues of (default mixing * dielectric matrix)
  average eigenvalue GAMMA=   1.2099
  2.7173  1.8927  1.8927  0.8411  0.8411  0.8568  0.8568  0.9536  0.7385  0.5086

 Free energy of the ion-electron system (eV)
  ---------------------------------------------------
  alpha Z        PSCENC =      1612.12532183
  Ewald energy   TEWEN  =    105877.77580464
  -Hartree energ DENC   =   -135481.60712301
  -exchange      EXHF   =         0.00000000
  -V(xc)+E(xc)   XCENC  =      1114.27730305
  PAW double counting   =     72758.00272295   -72414.40132481
  entropy T*S    EENTRO =        -0.02268644
  eigenvalues    EBANDS =     -6817.74700801
  atomic energy  EATOM  =     32690.54280978
  Solvation  Ediel_sol  =         0.00000000
  ---------------------------------------------------
  free energy    TOTEN  =      -661.05418000 eV

  energy without entropy =     -661.03149356  energy(sigma->0) =     -661.04283678


--------------------------------------------------------------------------------------------------------




--------------------------------------- Iteration      1(  16)  ---------------------------------------


    POTLOK:  cpu time    0.1783: real time    0.2075
    SETDIJ:  cpu time    0.0384: real time    0.0384
     EDDAV:  cpu time   41.1795: real time   41.2542
       DOS:  cpu time    0.0050: real time    0.0050
    CHARGE:  cpu time    1.7036: real time    1.7063
    MIXING:  cpu time    0.0090: real time    0.0099
    --------------------------------------------
      LOOP:  cpu time   43.1139: real time   43.2213

 eigenvalue-minimisations  :  4808
 total energy-change (2. order) :-0.2929672E-02  (-0.1820154E-03)
 number of electron     454.0000001 magnetization 
 augmentation part       89.8277948 magnetization 

 Broyden mixing:
  rms(total) = 0.18413E-01    rms(broyden)= 0.18413E-01
  rms(prec ) = 0.25193E-01
  weight for this iteration     100.00

 eigenvalues of (default mixing * dielectric matrix)
  average eigenvalue GAMMA=   1.2859
  2.7942  2.7299  1.5412  1.5412  0.7951  0.7951  0.8837  0.8837  0.8346  0.8346
  0.5119

 Free energy of the ion-electron system (eV)
  ---------------------------------------------------
  alpha Z        PSCENC =      1612.12532183
  Ewald energy   TEWEN  =    105877.77580464
  -Hartree energ DENC   =   -135497.15872473
  -exchange      EXHF   =         0.00000000
  -V(xc)+E(xc)   XCENC  =      1114.29619504
  PAW double counting   =     72661.27574170   -72317.67453885
  entropy T*S    EENTRO =        -0.02262547
  eigenvalues    EBANDS =     -6802.21709360
  atomic energy  EATOM  =     32690.54280978
  Solvation  Ediel_sol  =         0.00000000
  ---------------------------------------------------
  free energy    TOTEN  =      -661.05710967 eV

  energy without entropy =     -661.03448420  energy(sigma->0) =     -661.04579693


--------------------------------------------------------------------------------------------------------




--------------------------------------- Iteration      1(  17)  ---------------------------------------


    POTLOK:  cpu time    0.1996: real time    0.2001
    SETDIJ:  cpu time    0.0383: real time    0.0383
     EDDAV:  cpu time   44.2423: real time   44.6494
       DOS:  cpu time    0.0048: real time    0.0048
    CHARGE:  cpu time    1.6872: real time    1.6896
    MIXING:  cpu time    0.0092: real time    0.0092
    --------------------------------------------
      LOOP:  cpu time   46.1812: real time   46.5914

 eigenvalue-minimisations  :  5256
 total energy-change (2. order) :-0.1505646E-02  (-0.2839359E-03)
 number of electron     454.0000001 magnetization 
 augmentation part       89.8260889 magnetization 

 Broyden mixing:
  rms(total) = 0.89170E-02    rms(broyden)= 0.89166E-02
  rms(prec ) = 0.13859E-01
  weight for this iteration     100.00

 eigenvalues of (default mixing * dielectric matrix)
  average eigenvalue GAMMA=   1.3446
  2.9925  2.9925  2.0266  1.4894  1.0377  1.0377  0.7905  0.7905  0.8568  0.8568
  0.7516  0.5125

 Free energy of the ion-electron system (eV)
  ---------------------------------------------------
  alpha Z        PSCENC =      1612.12532183
  Ewald energy   TEWEN  =    105877.77580464
  -Hartree energ DENC   =   -135518.24128846
  -exchange      EXHF   =         0.00000000
  -V(xc)+E(xc)   XCENC  =      1114.35248867
  PAW double counting   =     72572.81259284   -72229.23295660
  entropy T*S    EENTRO =        -0.02269099
  eigenvalues    EBANDS =     -6781.17069704
  atomic energy  EATOM  =     32690.54280978
  Solvation  Ediel_sol  =         0.00000000
  ---------------------------------------------------
  free energy    TOTEN  =      -661.05861532 eV

  energy without entropy =     -661.03592433  energy(sigma->0) =     -661.04726982


--------------------------------------------------------------------------------------------------------




--------------------------------------- Iteration      1(  18)  ---------------------------------------


    POTLOK:  cpu time    0.1719: real time    0.2005
    SETDIJ:  cpu time    0.0385: real time    0.0385
     EDDAV:  cpu time   40.7005: real time   40.9834
       DOS:  cpu time    0.0048: real time    0.0048
    CHARGE:  cpu time    1.6959: real time    1.6987
    MIXING:  cpu time    0.0096: real time    0.0096
    --------------------------------------------
      LOOP:  cpu time   42.6211: real time   42.9356

 eigenvalue-minimisations  :  4776
 total energy-change (2. order) :-0.1070725E-02  (-0.9883137E-04)
 number of electron     454.0000001 magnetization 
 augmentation part       89.8259519 magnetization 

 Broyden mixing:
  rms(total) = 0.15714E-01    rms(broyden)= 0.15714E-01
  rms(prec ) = 0.17044E-01
  weight for this iteration     100.00

 eigenvalues of (default mixing * dielectric matrix)
  average eigenvalue GAMMA=   1.3791
  3.5439  2.9208  2.0329  1.7639  1.2402  0.7841  0.7841  1.0313  0.8795  0.8795
  0.5127  0.7779  0.7779

 Free energy of the ion-electron system (eV)
  ---------------------------------------------------
  alpha Z        PSCENC =      1612.12532183
  Ewald energy   TEWEN  =    105877.77580464
  -Hartree energ DENC   =   -135530.23541662
  -exchange      EXHF   =         0.00000000
  -V(xc)+E(xc)   XCENC  =      1114.36755180
  PAW double counting   =     72581.97159347   -72238.40352036
  entropy T*S    EENTRO =        -0.02263355
  eigenvalues    EBANDS =     -6769.18119705
  atomic energy  EATOM  =     32690.54280978
  Solvation  Ediel_sol  =         0.00000000
  ---------------------------------------------------
  free energy    TOTEN  =      -661.05968604 eV

  energy without entropy =     -661.03705249  energy(sigma->0) =     -661.04836927


--------------------------------------------------------------------------------------------------------




--------------------------------------- Iteration      1(  19)  ---------------------------------------


    POTLOK:  cpu time    0.1721: real time    0.2010
    SETDIJ:  cpu time    0.0386: real time    0.0386
     EDDAV:  cpu time   43.1009: real time   43.6370
       DOS:  cpu time    0.0049: real time    0.0049
    CHARGE:  cpu time    1.6824: real time    1.7049
    MIXING:  cpu time    0.0104: real time    0.0104
    --------------------------------------------
      LOOP:  cpu time   45.0093: real time   45.5968

 eigenvalue-minimisations  :  5096
 total energy-change (2. order) :-0.6659056E-03  (-0.5081265E-04)
 number of electron     454.0000001 magnetization 
 augmentation part       89.8248730 magnetization 

 Broyden mixing:
  rms(total) = 0.64282E-02    rms(broyden)= 0.64281E-02
  rms(prec ) = 0.77709E-02
  weight for this iteration     100.00

 eigenvalues of (default mixing * dielectric matrix)
  average eigenvalue GAMMA=   1.5069
  4.8241  2.7833  2.7833  1.9554  1.4689  0.9443  0.9443  0.7883  0.7883  0.9270
  0.8207  0.8207  0.5125  0.7361

 Free energy of the ion-electron system (eV)
  ---------------------------------------------------
  alpha Z        PSCENC =      1612.12532183
  Ewald energy   TEWEN  =    105877.77580464
  -Hartree energ DENC   =   -135539.04627233
  -exchange      EXHF   =         0.00000000
  -V(xc)+E(xc)   XCENC  =      1114.39579565
  PAW double counting   =     72587.83690074   -72244.27981324
  entropy T*S    EENTRO =        -0.02262370
  eigenvalues    EBANDS =     -6760.38827532
  atomic energy  EATOM  =     32690.54280978
  Solvation  Ediel_sol  =         0.00000000
  ---------------------------------------------------
  free energy    TOTEN  =      -661.06035195 eV

  energy without entropy =     -661.03772824  energy(sigma->0) =     -661.04904009


--------------------------------------------------------------------------------------------------------




--------------------------------------- Iteration      1(  20)  ---------------------------------------


    POTLOK:  cpu time    0.1724: real time    0.2014
    SETDIJ:  cpu time    0.0386: real time    0.0385
     EDDAV:  cpu time   42.0223: real time   42.1093
       DOS:  cpu time    0.0054: real time    0.0054
    CHARGE:  cpu time    1.6923: real time    1.6950
    MIXING:  cpu time    0.0105: real time    0.0105
    --------------------------------------------
      LOOP:  cpu time   43.9414: real time   44.0602

 eigenvalue-minimisations  :  4960
 total energy-change (2. order) :-0.5958711E-03  (-0.3920901E-04)
 number of electron     454.0000001 magnetization 
 augmentation part       89.8242253 magnetization 

 Broyden mixing:
  rms(total) = 0.48986E-02    rms(broyden)= 0.48985E-02
  rms(prec ) = 0.56321E-02
  weight for this iteration     100.00

 eigenvalues of (default mixing * dielectric matrix)
  average eigenvalue GAMMA=   1.4879
  5.2339  2.7499  2.7499  1.7226  1.7226  0.9666  0.9666  0.7914  0.7914  0.5126
  0.8768  0.8768  0.8220  0.8220  0.7137

 Free energy of the ion-electron system (eV)
  ---------------------------------------------------
  alpha Z        PSCENC =      1612.12532183
  Ewald energy   TEWEN  =    105877.77580464
  -Hartree energ DENC   =   -135545.97449069
  -exchange      EXHF   =         0.00000000
  -V(xc)+E(xc)   XCENC  =      1114.41486054
  PAW double counting   =     72603.18282546   -72259.63424812
  entropy T*S    EENTRO =        -0.02262046
  eigenvalues    EBANDS =     -6753.47121079
  atomic energy  EATOM  =     32690.54280978
  Solvation  Ediel_sol  =         0.00000000
  ---------------------------------------------------
  free energy    TOTEN  =      -661.06094782 eV

  energy without entropy =     -661.03832735  energy(sigma->0) =     -661.04963759


--------------------------------------------------------------------------------------------------------




--------------------------------------- Iteration      1(  21)  ---------------------------------------


    POTLOK:  cpu time    0.1734: real time    0.2013
    SETDIJ:  cpu time    0.0385: real time    0.0385
     EDDAV:  cpu time   46.2008: real time   46.5474
       DOS:  cpu time    0.0054: real time    0.0054
    CHARGE:  cpu time    1.6932: real time    1.6966
    MIXING:  cpu time    0.0110: real time    0.0110
    --------------------------------------------
      LOOP:  cpu time   48.1222: real time   48.5001

 eigenvalue-minimisations  :  5536
 total energy-change (2. order) :-0.2901366E-03  (-0.3401757E-05)
 number of electron     454.0000001 magnetization 
 augmentation part       89.8242455 magnetization 

 Broyden mixing:
  rms(total) = 0.32921E-02    rms(broyden)= 0.32921E-02
  rms(prec ) = 0.40510E-02
  weight for this iteration     100.00

 eigenvalues of (default mixing * dielectric matrix)
  average eigenvalue GAMMA=   1.4975
  5.5677  2.8540  2.5556  1.8220  1.8220  1.0179  1.0179  0.7729  0.7729  0.5126
  0.9458  0.9458  0.9233  0.8433  0.8433  0.7436

 Free energy of the ion-electron system (eV)
  ---------------------------------------------------
  alpha Z        PSCENC =      1612.12532183
  Ewald energy   TEWEN  =    105877.77580464
  -Hartree energ DENC   =   -135546.89344170
  -exchange      EXHF   =         0.00000000
  -V(xc)+E(xc)   XCENC  =      1114.41371230
  PAW double counting   =     72600.74703661   -72257.19809992
  entropy T*S    EENTRO =        -0.02263003
  eigenvalues    EBANDS =     -6752.55175147
  atomic energy  EATOM  =     32690.54280978
  Solvation  Ediel_sol  =         0.00000000
  ---------------------------------------------------
  free energy    TOTEN  =      -661.06123795 eV

  energy without entropy =     -661.03860793  energy(sigma->0) =     -661.04992294


--------------------------------------------------------------------------------------------------------




--------------------------------------- Iteration      1(  22)  ---------------------------------------


    POTLOK:  cpu time    0.1715: real time    0.2004
    SETDIJ:  cpu time    0.0387: real time    0.0387
     EDDAV:  cpu time   44.2700: real time   44.5033
       DOS:  cpu time    0.0045: real time    0.0046
    CHARGE:  cpu time    1.6898: real time    1.6923
    MIXING:  cpu time    0.0114: real time    0.0114
    --------------------------------------------
      LOOP:  cpu time   46.1859: real time   46.4506

 eigenvalue-minimisations  :  5272
 total energy-change (2. order) :-0.8405348E-03  (-0.3117045E-05)
 number of electron     454.0000001 magnetization 
 augmentation part       89.8241669 magnetization 

 Broyden mixing:
  rms(total) = 0.13338E-02    rms(broyden)= 0.13338E-02
  rms(prec ) = 0.20659E-02
  weight for this iteration     100.00

 eigenvalues of (default mixing * dielectric matrix)
  average eigenvalue GAMMA=   1.5566
  5.8556  2.9883  2.4651  2.2734  2.2734  1.2071  1.2071  0.7856  0.7856  0.9391
  0.9391  0.5126  0.9235  0.9235  0.8257  0.8257  0.7321

 Free energy of the ion-electron system (eV)
  ---------------------------------------------------
  alpha Z        PSCENC =      1612.12532183
  Ewald energy   TEWEN  =    105877.77580464
  -Hartree energ DENC   =   -135548.63924530
  -exchange      EXHF   =         0.00000000
  -V(xc)+E(xc)   XCENC  =      1114.41403947
  PAW double counting   =     72595.52540678   -72251.97504919
  entropy T*S    EENTRO =        -0.02263468
  eigenvalues    EBANDS =     -6750.80853183
  atomic energy  EATOM  =     32690.54280978
  Solvation  Ediel_sol  =         0.00000000
  ---------------------------------------------------
  free energy    TOTEN  =      -661.06207849 eV

  energy without entropy =     -661.03944381  energy(sigma->0) =     -661.05076115


--------------------------------------------------------------------------------------------------------




--------------------------------------- Iteration      1(  23)  ---------------------------------------


    POTLOK:  cpu time    0.1708: real time    0.1992
    SETDIJ:  cpu time    0.0386: real time    0.0386
     EDDAV:  cpu time   44.6921: real time   44.9661
       DOS:  cpu time    0.0056: real time    0.0055
    CHARGE:  cpu time    1.7011: real time    1.7036
    MIXING:  cpu time    0.0118: real time    0.0118
    --------------------------------------------
      LOOP:  cpu time   46.6199: real time   46.9248

 eigenvalue-minimisations  :  5336
 total energy-change (2. order) :-0.8617308E-03  (-0.3955539E-05)
 number of electron     454.0000001 magnetization 
 augmentation part       89.8242552 magnetization 

 Broyden mixing:
  rms(total) = 0.18112E-02    rms(broyden)= 0.18112E-02
  rms(prec ) = 0.19901E-02
  weight for this iteration     100.00

 eigenvalues of (default mixing * dielectric matrix)
  average eigenvalue GAMMA=   1.6147
  6.2497  3.5620  2.6252  2.6252  1.9841  1.4340  1.4340  0.9793  0.9793  0.7828
  0.7828  0.5126  0.8977  0.8977  0.9680  0.8078  0.8078  0.7348

 Free energy of the ion-electron system (eV)
  ---------------------------------------------------
  alpha Z        PSCENC =      1612.12532183
  Ewald energy   TEWEN  =    105877.77580464
  -Hartree energ DENC   =   -135549.77760392
  -exchange      EXHF   =         0.00000000
  -V(xc)+E(xc)   XCENC  =      1114.41128066
  PAW double counting   =     72594.62112190   -72251.07004324
  entropy T*S    EENTRO =        -0.02263219
  eigenvalues    EBANDS =     -6749.66899969
  atomic energy  EATOM  =     32690.54280978
  Solvation  Ediel_sol  =         0.00000000
  ---------------------------------------------------
  free energy    TOTEN  =      -661.06294022 eV

  energy without entropy =     -661.04030803  energy(sigma->0) =     -661.05162413


--------------------------------------------------------------------------------------------------------




--------------------------------------- Iteration      1(  24)  ---------------------------------------


    POTLOK:  cpu time    0.1703: real time    0.1988
    SETDIJ:  cpu time    0.0384: real time    0.0384
     EDDAV:  cpu time   42.0826: real time   42.2021
       DOS:  cpu time    0.0049: real time    0.0051
    CHARGE:  cpu time    1.6715: real time    1.6994
    MIXING:  cpu time    0.0125: real time    0.0126
    --------------------------------------------
      LOOP:  cpu time   43.9803: real time   44.1563

 eigenvalue-minimisations  :  4976
 total energy-change (2. order) :-0.6181963E-03  (-0.2967304E-05)
 number of electron     454.0000001 magnetization 
 augmentation part       89.8243252 magnetization 

 Broyden mixing:
  rms(total) = 0.20534E-02    rms(broyden)= 0.20534E-02
  rms(prec ) = 0.20901E-02
  weight for this iteration     100.00

 eigenvalues of (default mixing * dielectric matrix)
  average eigenvalue GAMMA=   1.7163
  7.2427  4.5590  2.7346  2.7346  1.8868  1.8868  1.2661  1.1353  1.1353  0.7851
  0.7851  0.9100  0.9100  0.5126  0.9546  0.7959  0.7959  0.8469  0.7324

 Free energy of the ion-electron system (eV)
  ---------------------------------------------------
  alpha Z        PSCENC =      1612.12532183
  Ewald energy   TEWEN  =    105877.77580464
  -Hartree energ DENC   =   -135550.31474815
  -exchange      EXHF   =         0.00000000
  -V(xc)+E(xc)   XCENC  =      1114.40860984
  PAW double counting   =     72592.49429948   -72248.94259223
  entropy T*S    EENTRO =        -0.02263114
  eigenvalues    EBANDS =     -6749.13043247
  atomic energy  EATOM  =     32690.54280978
  Solvation  Ediel_sol  =         0.00000000
  ---------------------------------------------------
  free energy    TOTEN  =      -661.06355842 eV

  energy without entropy =     -661.04092728  energy(sigma->0) =     -661.05224285


--------------------------------------------------------------------------------------------------------




--------------------------------------- Iteration      1(  25)  ---------------------------------------


    POTLOK:  cpu time    0.1685: real time    0.1984
    SETDIJ:  cpu time    0.0379: real time    0.0383
     EDDAV:  cpu time   44.3008: real time   44.6176
       DOS:  cpu time    0.0052: real time    0.0052
    CHARGE:  cpu time    1.6952: real time    1.6977
    MIXING:  cpu time    0.0131: real time    0.0131
    --------------------------------------------
      LOOP:  cpu time   46.2207: real time   46.5703

 eigenvalue-minimisations  :  5288
 total energy-change (2. order) :-0.2992925E-03  (-0.1644907E-05)
 number of electron     454.0000001 magnetization 
 augmentation part       89.8243592 magnetization 

 Broyden mixing:
  rms(total) = 0.15232E-02    rms(broyden)= 0.15232E-02
  rms(prec ) = 0.15365E-02
  weight for this iteration     100.00

 eigenvalues of (default mixing * dielectric matrix)
  average eigenvalue GAMMA=   1.7378
  7.6892  5.1103  2.7344  2.7344  1.9990  1.9990  1.2092  1.2092  1.2206  0.9037
  0.9037  0.7837  0.7837  0.5126  1.0163  0.8176  0.8176  0.7285  0.7919  0.7919

 Free energy of the ion-electron system (eV)
  ---------------------------------------------------
  alpha Z        PSCENC =      1612.12532183
  Ewald energy   TEWEN  =    105877.77580464
  -Hartree energ DENC   =   -135550.56121989
  -exchange      EXHF   =         0.00000000
  -V(xc)+E(xc)   XCENC  =      1114.40753260
  PAW double counting   =     72591.47670775   -72247.92520626
  entropy T*S    EENTRO =        -0.02263346
  eigenvalues    EBANDS =     -6748.88297471
  atomic energy  EATOM  =     32690.54280978
  Solvation  Ediel_sol  =         0.00000000
  ---------------------------------------------------
  free energy    TOTEN  =      -661.06385771 eV

  energy without entropy =     -661.04122425  energy(sigma->0) =     -661.05254098


[...]
    POTLOK:  cpu time    0.1685: real time    0.1689
    SETDIJ:  cpu time    0.0381: real time    0.0381
     EDDAV:  cpu time   28.9856: real time   29.2770
       DOS:  cpu time    0.0050: real time    0.0050
    CHARGE:  cpu time    1.7027: real time    1.7044
    MIXING:  cpu time    0.0103: real time    0.0103
    --------------------------------------------
      LOOP:  cpu time   30.9102: real time   31.2036

 eigenvalue-minimisations  :  3016
 total energy-change (2. order) :-0.3630703E-08  (-0.1269492E-10)
 number of electron     454.0000008 magnetization 
 augmentation part       89.8275992 magnetization 

 eigenvalues of (default mixing * dielectric matrix)
  average eigenvalue GAMMA=   1.4148
  2.5082  2.5082  2.7911  2.6364  1.3871  1.3871  1.0013  1.0013  1.0603  1.0603
  0.5256  0.9150  0.9150  0.7629  0.7629

  free energy =  -0.661540432281E+03  energy without entropy=  -0.661519068458E+03


--------------------------------------------------------------------------------------------------------




--------------------------------------- Iteration     28(  17)  ---------------------------------------


    POTLOK:  cpu time    0.1678: real time    0.1689
    SETDIJ:  cpu time    0.0381: real time    0.0381
     EDDAV:  cpu time   28.5743: real time   28.6235
       DOS:  cpu time    0.0045: real time    0.0046
    CHARGE:  cpu time    1.6946: real time    1.6969
    MIXING:  cpu time    0.0111: real time    0.0111
    --------------------------------------------
      LOOP:  cpu time   30.4904: real time   30.5431

 eigenvalue-minimisations  :  2992
 total energy-change (2. order) :-0.3266905E-08  (-0.1613828E-10)
 number of electron     454.0000008 magnetization 
 augmentation part       89.8275992 magnetization 

 eigenvalues of (default mixing * dielectric matrix)
  average eigenvalue GAMMA=   1.3866
  2.6766  2.6766  2.3367  2.3367  1.4602  1.4602  1.2135  1.2135  0.9966  0.9966
  0.5256  0.9170  0.9170  0.9247  0.7672  0.7672

  free energy =  -0.661540432284E+03  energy without entropy=  -0.661519068462E+03


--------------------------------------------------------------------------------------------------------




--------------------------------------- Iteration     28(  18)  ---------------------------------------


    POTLOK:  cpu time    0.1686: real time    0.1690
    SETDIJ:  cpu time    0.0378: real time    0.0380
     EDDAV:  cpu time   28.9336: real time   29.2504
       DOS:  cpu time    0.0043: real time    0.0043
    --------------------------------------------
      LOOP:  cpu time   29.1443: real time   29.4617

 eigenvalue-minimisations  :  3016
 total energy-change (2. order) :-0.2255547E-09  (-0.4794044E-11)
 number of electron     454.0000008 magnetization 
 augmentation part       89.8275992 magnetization 

  free energy =  -0.661540432284E+03  energy without entropy=  -0.661519068462E+03


--------------------------------------------------------------------------------------------------------




------------------------ aborting loop because EDIFF is reached ----------------------------------------


    CHARGE:  cpu time    1.6973: real time    1.7002
    FORLOC:  cpu time    0.0822: real time    0.0822
    FORNL :  cpu time    6.4053: real time    6.4148
    STRESS:  cpu time   19.2194: real time   19.2538
    FORCOR:  cpu time    0.2458: real time    0.2468
    FORHAR:  cpu time    0.1144: real time    0.1144
    MIXING:  cpu time    0.0115: real time    0.0115
    OFIELD:  cpu time    0.0001: real time    0.0001

  FORCE on cell =-STRESS in cart. coord.  units (eV):
  Direction    XX          YY          ZZ          XY          YZ          ZX
  --------------------------------------------------------------------------------------
  Alpha Z  1612.12532  1612.12532  1612.12532
  Ewald  126436.02238126436.01807************    33.28996    15.73495   -15.83949
  Hartree133262.88106133262.77580************    17.97426    -1.01261     0.99055
  E(xc)   -1782.54469 -1782.54440 -1787.26142    -0.03295     0.12298    -0.12227
  Local  ************************273351.46661   -53.96382    -9.06626     9.17498
  n-local -1617.41394 -1617.52448 -1624.09994    -0.37086     0.24986    -0.22704
  augment   537.28738   537.28926   523.07019     0.16373    -0.32902     0.32870
  Kinetic  5956.21953  5956.23338  5890.53216     1.55852    -5.81314     5.71846
  Fock        0.00000     0.00000     0.00000     0.00000     0.00000     0.00000
  -------------------------------------------------------------------------------------
  Total     -32.57847   -32.68040   -12.42462    -1.38115    -0.11324     0.02388
  in kB     -27.49852   -27.58456   -10.48725    -1.16579    -0.09559     0.02016
  external pressure =      -21.86 kB  Pullay stress =        0.00 kB



--------------------------------------------------------------------------------------------------------



  FREE ENERGIE OF THE ION-ELECTRON SYSTEM (eV)
  ---------------------------------------------------
  free  energy   TOTEN  =      -661.54043228 eV

  energy  without entropy=     -661.51906846  energy(sigma->0) =     -661.52975037
 
 d Force = 0.1381557E-04[-0.193E-04, 0.470E-04]  d Energy = 0.1064417E-04 0.317E-05
 d Force = 0.1783391E+01[ 0.178E+01, 0.178E+01]  d Ewald  = 0.1783390E+01 0.613E-06


--------------------------------------------------------------------------------------------------------


    POTLOK:  cpu time    0.2110: real time    0.2110


--------------------------------------------------------------------------------------------------------


 stress matrix after NEB project (eV)
    -32.57847     -1.38115      0.02388
     -1.38115    -32.68040     -0.11325
      0.02388     -0.11324    -12.42462
  FORCES: max atom, RMS     0.012937    0.003760
  FORCE total and by dimension    0.030315    0.012545
  Stress total and by dimension   47.828635   32.680402
 Conjugate gradient step on ions:
 trial-energy change:   -0.000011  1 .order   -0.000014   -0.000047    0.000019
  (g-gl).g = 0.313E-04      g.g   = 0.389E-04  gl.gl    = 0.420E-04
 g(Force)  = 0.389E-04   g(Stress)= 0.000E+00 ortho     = 0.349E-06
 gamma     =   0.74480
 trial     =   1.19982
 opt step  =   0.77083  (harmonic =   0.84993) maximal distance =0.00039309
 next E    =  -661.540436   (d E  =  -0.00001)


--------------------------------------------------------------------------------------------------------


    WAVPRE:  cpu time    0.1095: real time    0.1130
    FEWALD:  cpu time    0.0042: real time    0.0042

 real space projection operators:
  total allocation   :      12553.81 KBytes
  max/ min on nodes  :       1674.17       1316.97

    ORTHCH:  cpu time    2.6598: real time    2.6638
     LOOP+:  cpu time  705.1054: real time  709.2859


--------------------------------------- Iteration     29(   1)  ---------------------------------------


    POTLOK:  cpu time    0.1876: real time    0.1966
    SETDIJ:  cpu time    0.0382: real time    0.0382
     EDDAV:  cpu time   37.8488: real time   38.1008
       DOS:  cpu time    0.0049: real time    0.0049
    CHARGE:  cpu time    1.6909: real time    1.6935
    MIXING:  cpu time    0.0190: real time    0.0190
    --------------------------------------------
      LOOP:  cpu time   39.7896: real time   40.0531

 eigenvalue-minimisations  :  4352
 total energy-change (2. order) : 0.6093112E-05  (-0.3117584E-03)
 number of electron     454.0000008 magnetization 
 augmentation part       89.8276558 magnetization 

  free energy =  -0.661540426191E+03  energy without entropy=  -0.661519062881E+03


--------------------------------------------------------------------------------------------------------




--------------------------------------- Iteration     29(   2)  ---------------------------------------


    POTLOK:  cpu time    0.1711: real time    0.1725
    SETDIJ:  cpu time    0.0380: real time    0.0380
     EDDAV:  cpu time   41.9080: real time   42.2327
       DOS:  cpu time    0.0049: real time    0.0049
    CHARGE:  cpu time    1.6923: real time    1.6948
    MIXING:  cpu time    0.0057: real time    0.0057
    --------------------------------------------
      LOOP:  cpu time   43.8200: real time   44.1486

 eigenvalue-minimisations  :  4920
 total energy-change (2. order) :-0.9690302E-05  (-0.1088513E-04)
 number of electron     454.0000008 magnetization 
 augmentation part       89.8276535 magnetization 

 eigenvalues of (default mixing * dielectric matrix)
  average eigenvalue GAMMA=   0.9300
  0.9300

  free energy =  -0.661540435881E+03  energy without entropy=  -0.661519073708E+03


--------------------------------------------------------------------------------------------------------




--------------------------------------- Iteration     29(   3)  ---------------------------------------


    POTLOK:  cpu time    0.1679: real time    0.1683
    SETDIJ:  cpu time    0.0382: real time    0.0382
     EDDAV:  cpu time   45.2854: real time   45.4394
       DOS:  cpu time    0.0048: real time    0.0049
    CHARGE:  cpu time    1.7478: real time    1.7760
    MIXING:  cpu time    0.0060: real time    0.0060
    --------------------------------------------
      LOOP:  cpu time   47.2502: real time   47.4328

 eigenvalue-minimisations  :  5424
 total energy-change (2. order) : 0.3268069E-06  (-0.3107926E-06)
 number of electron     454.0000008 magnetization 
 augmentation part       89.8276545 magnetization 

 eigenvalues of (default mixing * dielectric matrix)
  average eigenvalue GAMMA=   1.2014
  1.2014  1.2014

  free energy =  -0.661540435555E+03  energy without entropy=  -0.661519072993E+03


--------------------------------------------------------------------------------------------------------




--------------------------------------- Iteration     29(   4)  ---------------------------------------


    POTLOK:  cpu time    0.1701: real time    0.1706
    SETDIJ:  cpu time    0.0387: real time    0.0387
     EDDAV:  cpu time   42.3025: real time   42.5370
       DOS:  cpu time    0.0048: real time    0.0048
    CHARGE:  cpu time    1.6918: real time    1.6943
    MIXING:  cpu time    0.0061: real time    0.0061
    --------------------------------------------
      LOOP:  cpu time   44.2139: real time   44.4514

 eigenvalue-minimisations  :  4992
 total energy-change (2. order) :-0.7101335E-08  (-0.9795039E-07)
 number of electron     454.0000008 magnetization 
 augmentation part       89.8276777 magnetization 

 eigenvalues of (default mixing * dielectric matrix)
  average eigenvalue GAMMA=   1.3635
  2.1608  0.9648  0.9648

  free energy =  -0.661540435562E+03  energy without entropy=  -0.661519073472E+03


--------------------------------------------------------------------------------------------------------




--------------------------------------- Iteration     29(   5)  ---------------------------------------


    POTLOK:  cpu time    0.1681: real time    0.1686
    SETDIJ:  cpu time    0.0382: real time    0.0382
     EDDAV:  cpu time   43.4150: real time   43.8267
       DOS:  cpu time    0.0050: real time    0.0050
    CHARGE:  cpu time    1.6894: real time    1.6909
    MIXING:  cpu time    0.0066: real time    0.0066
    --------------------------------------------
      LOOP:  cpu time   45.3222: real time   45.7358

 eigenvalue-minimisations  :  5056
 total energy-change (2. order) : 0.6548362E-10  (-0.2730406E-07)
 number of electron     454.0000008 magnetization 
 augmentation part       89.8276649 magnetization 

 eigenvalues of (default mixing * dielectric matrix)
  average eigenvalue GAMMA=   1.2995
  2.3408  0.9362  0.9362  0.9850

  free energy =  -0.661540435562E+03  energy without entropy=  -0.661519072322E+03


--------------------------------------------------------------------------------------------------------




--------------------------------------- Iteration     29(   6)  ---------------------------------------


    POTLOK:  cpu time    0.1675: real time    0.1689
    SETDIJ:  cpu time    0.0381: real time    0.0381
     EDDAV:  cpu time   43.3074: real time   43.7145
       DOS:  cpu time    0.0047: real time    0.0047
    CHARGE:  cpu time    1.6934: real time    1.6963
    MIXING:  cpu time    0.0069: real time    0.0069
    --------------------------------------------
      LOOP:  cpu time   45.2179: real time   45.6295

 eigenvalue-minimisations  :  5104
 total energy-change (2. order) :-0.5165930E-09  (-0.1158033E-07)
 number of electron     454.0000008 magnetization 
 augmentation part       89.8276654 magnetization 

 eigenvalues of (default mixing * dielectric matrix)
  average eigenvalue GAMMA=   1.2092
  2.4019  1.0422  1.0232  1.0232  0.5557

  free energy =  -0.661540435562E+03  energy without entropy=  -0.661519073716E+03


--------------------------------------------------------------------------------------------------------




--------------------------------------- Iteration     29(   7)  ---------------------------------------


    POTLOK:  cpu time    0.1682: real time    0.1686
    SETDIJ:  cpu time    0.0381: real time    0.0381
     EDDAV:  cpu time   41.9018: real time   42.0681
       DOS:  cpu time    0.0044: real time    0.0044
    CHARGE:  cpu time    1.6699: real time    1.7197
    MIXING:  cpu time    0.0072: real time    0.0072
    --------------------------------------------
      LOOP:  cpu time   43.7896: real time   44.0061

 eigenvalue-minimisations  :  4944
 total energy-change (2. order) : 0.7676135E-08  (-0.2810583E-08)
 number of electron     454.0000008 magnetization 
 augmentation part       89.8276653 magnetization 

 eigenvalues of (default mixing * dielectric matrix)
  average eigenvalue GAMMA=   1.2692
  2.4565  1.7169  1.0231  1.0231  0.8748  0.5205

  free energy =  -0.661540435555E+03  energy without entropy=  -0.661519072975E+03


--------------------------------------------------------------------------------------------------------




--------------------------------------- Iteration     29(   8)  ---------------------------------------


    POTLOK:  cpu time    0.1937: real time    0.2028
    SETDIJ:  cpu time    0.0423: real time    0.0423
     EDDAV:  cpu time   38.8710: real time   39.1710
       DOS:  cpu time    0.0047: real time    0.0047
    CHARGE:  cpu time    1.6948: real time    1.6973
    MIXING:  cpu time    0.0076: real time    0.0076
    --------------------------------------------
      LOOP:  cpu time   40.8141: real time   41.1257

 eigenvalue-minimisations  :  4472
 total energy-change (2. order) :-0.1789886E-08  (-0.7512430E-09)
 number of electron     454.0000008 magnetization 
 augmentation part       89.8276653 magnetization 

 eigenvalues of (default mixing * dielectric matrix)
  average eigenvalue GAMMA=   1.1879
  2.4897  1.8119  1.0591  1.0591  0.6551  0.6203  0.6203

  free energy =  -0.661540435556E+03  energy without entropy=  -0.661519073016E+03


--------------------------------------------------------------------------------------------------------




--------------------------------------- Iteration     29(   9)  ---------------------------------------


    POTLOK:  cpu time    0.1685: real time    0.1689
    SETDIJ:  cpu time    0.0379: real time    0.0381
     EDDAV:  cpu time   28.9768: real time   29.3378
       DOS:  cpu time    0.0045: real time    0.0045
    --------------------------------------------
      LOOP:  cpu time   29.1876: real time   29.5492

 eigenvalue-minimisations  :  3040
 total energy-change (2. order) :-0.8949428E-09  (-0.7364084E-10)
 number of electron     454.0000008 magnetization 
 augmentation part       89.8276653 magnetization 

  free energy =  -0.661540435557E+03  energy without entropy=  -0.661519073008E+03


--------------------------------------------------------------------------------------------------------




------------------------ aborting loop because EDIFF is reached ----------------------------------------


    CHARGE:  cpu time    1.6991: real time    1.7019
    FORLOC:  cpu time    0.0822: real time    0.0822
    FORNL :  cpu time    6.4090: real time    6.4180
    STRESS:  cpu time   19.2024: real time   19.2334
    FORCOR:  cpu time    0.2456: real time    0.2467
    FORHAR:  cpu time    0.1140: real time    0.1140
    MIXING:  cpu time    0.0076: real time    0.0076
    OFIELD:  cpu time    0.0001: real time    0.0001

  FORCE on cell =-STRESS in cart. coord.  units (eV):
  Direction    XX          YY          ZZ          XY          YZ          ZX
  --------------------------------------------------------------------------------------
  Alpha Z  1612.12532  1612.12532  1612.12532
  Ewald  126436.62598126436.63087************    33.26472    15.76635   -15.83848
  Hartree133263.51420133263.41559************    17.95707    -0.99509     0.98920
  E(xc)   -1782.54590 -1782.54564 -1787.26255    -0.03295     0.12305    -0.12221
  Local  ************************273352.66771   -53.92122    -9.11576     9.17097
  n-local -1617.42637 -1617.53208 -1624.10344    -0.37252     0.24838    -0.22428
  augment   537.28749   537.28938   523.07033     0.16370    -0.32866     0.32900
  Kinetic  5956.22537  5956.24051  5890.54025     1.55634    -5.81877     5.70999
  Fock        0.00000     0.00000     0.00000     0.00000     0.00000     0.00000
  -------------------------------------------------------------------------------------
  Total     -32.58697   -32.68258   -12.41548    -1.38485    -0.12050     0.01419
  in kB     -27.50570   -27.58640   -10.47954    -1.16891    -0.10171     0.01197
  external pressure =      -21.86 kB  Pullay stress =        0.00 kB



--------------------------------------------------------------------------------------------------------



  FREE ENERGIE OF THE ION-ELECTRON SYSTEM (eV)
  ---------------------------------------------------
  free  energy   TOTEN  =      -661.54043556 eV

  energy  without entropy=     -661.51907301  energy(sigma->0) =     -661.52975428
 
 d Force = 0.2198362E-05[-0.252E-05, 0.691E-05]  d Energy = 0.3272718E-05-0.107E-05
 d Force =-0.6375502E+00[-0.638E+00,-0.637E+00]  d Ewald  =-0.6375499E+00-0.318E-06


--------------------------------------------------------------------------------------------------------


    POTLOK:  cpu time    0.2111: real time    0.2112


--------------------------------------------------------------------------------------------------------


 stress matrix after NEB project (eV)
    -32.58697     -1.38485      0.01419
     -1.38485    -32.68258     -0.12050
      0.01419     -0.12050    -12.41548
  FORCES: max atom, RMS     0.006683    0.002314
  FORCE total and by dimension    0.018657    0.005581
  Stress total and by dimension   47.833784   32.682577


--------------------------------------------------------------------------------------------------------


  
 reached required accuracy - stopping structural energy minimisation
     LOOP+:  cpu time  407.5218: real time  410.3015
    4ORBIT:  cpu time    0.0000: real time    0.0000

 total amount of memory used by VASP MPI-rank0    71890. kBytes
=======================================================================

   base      :      30000. kBytes
   nonlr-proj:       4720. kBytes
   fftplans  :       3241. kBytes
   grid      :       5415. kBytes
   one-center:        139. kBytes
   wavefun   :      28375. kBytes
 
  
  
 General timing and accounting informations for this job:
 ========================================================
  
                  Total CPU time used (sec):    22218.496
                            User time (sec):    22151.185
                          System time (sec):       67.312
                         Elapsed time (sec):    22360.428
  
                   Maximum memory used (kb):     1373924.
                   Average memory used (kb):           0.
  
                          Minor page faults:      4596527
                          Major page faults:            0
                 Voluntary context switches:       222520
