       N       E                     dE             d eps       ncg     rms          rms(c)
RMM:   1     0.191868840845E+05    0.19187E+05   -0.47468E+05  2104   0.923E+02
RMM:   2     0.553303334795E+04   -0.13654E+05   -0.13871E+05  2104   0.234E+02
RMM:   3     0.132485792621E+04   -0.42082E+04   -0.46293E+04  2104   0.127E+02
RMM:   4    -0.231122884505E+03   -0.15560E+04   -0.14265E+04  2104   0.846E+01
RMM:   5    -0.900131272532E+03   -0.66901E+03   -0.57422E+03  2104   0.508E+01
RMM:   6    -0.119953913254E+04   -0.29941E+03   -0.25664E+03  2104   0.350E+01
RMM:   7    -0.133723131833E+04   -0.13769E+03   -0.12248E+03  2104   0.229E+01
RMM:   8    -0.143866744133E+04   -0.10144E+03   -0.94700E+02  4620   0.160E+01
RMM:   9    -0.146474968597E+04   -0.26082E+02   -0.24860E+02  5081   0.749E+00
RMM:  10    -0.146820870042E+04   -0.34590E+01   -0.26118E+01  5562   0.255E+00    0.205E+02
RMM:  11    -0.146780129288E+04    0.40741E+00   -0.20206E+02  4992   0.799E+00    0.135E+02
RMM:  12    -0.273958933834E+04   -0.12718E+04   -0.17019E+03  6391   0.161E+01    0.206E+02
RMM:  13    -0.153290605925E+04    0.12067E+04   -0.35226E+02  5404   0.879E+00    0.961E+01
RMM:  14    -0.203480861334E+04   -0.50190E+03   -0.92502E+02  6292   0.123E+01    0.153E+02
RMM:  15    -0.150969851043E+04    0.52511E+03   -0.24133E+02  5222   0.685E+00    0.546E+01
RMM:  16    -0.153213464157E+04   -0.22436E+02   -0.20748E+02  5176   0.624E+00    0.557E+01
RMM:  17    -0.147670443489E+04    0.55430E+02   -0.89526E+01  4673   0.455E+00    0.329E+01
RMM:  18    -0.147702046569E+04   -0.31603E+00   -0.53841E+01  4481   0.342E+00    0.350E+01
RMM:  19    -0.144442496926E+04    0.32595E+02   -0.18185E+01  4232   0.236E+00    0.171E+01
RMM:  20    -0.143966536398E+04    0.47596E+01   -0.47723E+00  4214   0.139E+00    0.137E+01
RMM:  21    -0.143902649974E+04    0.63886E+00   -0.20831E+00  4338   0.835E-01    0.120E+01
RMM:  22    -0.143966610005E+04   -0.63960E+00   -0.15275E+00  4233   0.665E-01    0.117E+01
RMM:  23    -0.143908422903E+04    0.58187E+00   -0.10350E+00  4231   0.599E-01    0.102E+01
RMM:  24    -0.143862119808E+04    0.46303E+00   -0.13094E+00  4415   0.622E-01    0.870E+00
RMM:  25    -0.143769005082E+04    0.93115E+00   -0.69025E-01  4238   0.508E-01    0.627E+00
RMM:  26    -0.143752532790E+04    0.16472E+00   -0.34783E-01  4228   0.380E-01    0.526E+00
RMM:  27    -0.143736946323E+04    0.15586E+00   -0.21613E-01  4228   0.290E-01    0.438E+00
RMM:  28    -0.143728196094E+04    0.87502E-01   -0.11052E-01  4282   0.203E-01    0.395E+00
RMM:  29    -0.143721428707E+04    0.67674E-01   -0.81679E-02  4264   0.164E-01    0.346E+00
RMM:  30    -0.143711357429E+04    0.10071E+00   -0.54323E-02  4261   0.139E-01    0.289E+00
RMM:  31    -0.143702358847E+04    0.89986E-01   -0.40235E-02  4255   0.123E-01    0.224E+00
RMM:  32    -0.143697150032E+04    0.52088E-01   -0.39466E-02  4422   0.113E-01    0.185E+00
RMM:  33    -0.143694082402E+04    0.30676E-01   -0.19559E-02  4236   0.890E-02    0.155E+00
RMM:  34    -0.143691914428E+04    0.21680E-01   -0.13692E-02  4355   0.737E-02    0.126E+00
RMM:  35    -0.143690981256E+04    0.93317E-02   -0.10229E-02  4385   0.634E-02    0.108E+00
RMM:  36    -0.143690431394E+04    0.54986E-02   -0.10797E-02  4514   0.640E-02    0.906E-01
RMM:  37    -0.143690097714E+04    0.33368E-02   -0.65422E-03  4317   0.522E-02    0.820E-01
RMM:  38    -0.143690189883E+04   -0.92169E-03   -0.17555E-03  4815   0.281E-02    0.827E-01
RMM:  39    -0.143689673592E+04    0.51629E-02   -0.25637E-03  4345   0.347E-02    0.734E-01
RMM:  40    -0.143689071706E+04    0.60189E-02   -0.40185E-03  4750   0.386E-02    0.588E-01
RMM:  41    -0.143688848884E+04    0.22282E-02   -0.13254E-03  4241   0.243E-02    0.499E-01
RMM:  42    -0.143688619432E+04    0.22945E-02   -0.21489E-03  4650   0.284E-02    0.382E-01
RMM:  43    -0.143688419689E+04    0.19974E-02   -0.17094E-03  4546   0.247E-02    0.275E-01
RMM:  44    -0.143688326866E+04    0.92823E-03   -0.78581E-04  4246   0.178E-02    0.204E-01
RMM:  45    -0.143688272340E+04    0.54526E-03   -0.53447E-04  4270   0.146E-02    0.141E-01
RMM:  46    -0.143688247276E+04    0.25064E-03   -0.33301E-04  4373   0.108E-02    0.101E-01
RMM:  47    -0.143688241109E+04    0.61665E-04   -0.17053E-04  4313   0.867E-03    0.723E-02
RMM:  48    -0.143688237207E+04    0.39029E-04   -0.15629E-04  4329   0.767E-03    0.485E-02
RMM:  49    -0.143688236067E+04    0.11393E-04   -0.76634E-05  4414   0.568E-03    0.341E-02
RMM:  50    -0.143688235900E+04    0.16754E-05   -0.31869E-05  4422   0.373E-03    0.264E-02
RMM:  51    -0.143688236364E+04   -0.46456E-05   -0.21821E-05  4159   0.316E-03    0.197E-02
RMM:  52    -0.143688237195E+04   -0.83027E-05   -0.17423E-05  4077   0.276E-03    0.168E-02
RMM:  53    -0.143688238056E+04   -0.86134E-05   -0.11976E-05  3997   0.227E-03    0.156E-02
RMM:  54    -0.143688238989E+04   -0.93329E-05   -0.11017E-05  4003   0.213E-03    0.145E-02
RMM:  55    -0.143688239591E+04   -0.60198E-05   -0.52116E-06  3565   0.150E-03    0.142E-02
RMM:  56    -0.143688240947E+04   -0.13562E-04   -0.17435E-05  4183   0.248E-03    0.144E-02
RMM:  57    -0.143688241137E+04   -0.18938E-05   -0.12814E-06  2647   0.869E-04    0.140E-02
RMM:  58    -0.143688241470E+04   -0.33326E-05   -0.14113E-06  2649   0.800E-04    0.140E-02
RMM:  59    -0.143688241698E+04   -0.22807E-05   -0.80965E-07  2566   0.614E-04    0.139E-02
RMM:  60    -0.143688241850E+04   -0.15244E-05   -0.47733E-07  2509   0.469E-04    0.140E-02
RMM:  61    -0.143688239670E+04    0.21806E-04   -0.29731E-05  4227   0.341E-03    0.149E-02
RMM:  62    -0.143688240716E+04   -0.10457E-04   -0.53291E-06  3052   0.153E-03    0.145E-02
RMM:  63    -0.143688245277E+04   -0.45615E-04   -0.14018E-04  5800   0.721E-03    0.149E-02
RMM:  64    -0.143688254246E+04   -0.89685E-04   -0.61910E-04  6702   0.151E-02    0.166E-02
RMM:  65    -0.143688261071E+04   -0.68257E-04   -0.73071E-04  6767   0.162E-02    0.207E-02
RMM:  66    -0.143688260022E+04    0.10491E-04   -0.41881E-05  4384   0.461E-03    0.182E-02
RMM:  67    -0.143688260904E+04   -0.88183E-05   -0.16427E-05  3956   0.252E-03    0.179E-02
RMM:  68    -0.143688260761E+04    0.14280E-05   -0.10174E-06  2684   0.831E-04    0.143E-02
RMM:  69    -0.143688261940E+04   -0.11785E-04   -0.79898E-05  5371   0.543E-03    0.123E-02
RMM:  70    -0.143688261597E+04    0.34287E-05   -0.64661E-06  3443   0.175E-03    0.856E-03
RMM:  71    -0.143688261998E+04   -0.40166E-05   -0.19091E-05  4092   0.276E-03    0.519E-03
RMM:  72    -0.143688262203E+04   -0.20430E-05   -0.49495E-05  4972   0.428E-03    0.440E-03
RMM:  73    -0.143688262192E+04    0.11006E-06   -0.66058E-07  2641   0.719E-04
   1 F= -.13255813E+04 E0= -.13255515E+04  d E =-.132558E+04  mag=    -1.5830
       N       E                     dE             d eps       ncg     rms          rms(c)
RMM:   1    -0.143689018731E+04   -0.75653E-02   -0.47927E-01  2104   0.492E-01
RMM:   2    -0.143689333432E+04   -0.31470E-02   -0.32832E-02  2104   0.169E-01
RMM:   3    -0.143689395118E+04   -0.61686E-03   -0.61695E-03  2104   0.647E-02
RMM:   4    -0.143689410981E+04   -0.15862E-03   -0.15940E-03  2104   0.350E-02
RMM:   5    -0.143689415738E+04   -0.47579E-04   -0.47631E-04  2104   0.181E-02
RMM:   6    -0.143689417303E+04   -0.15645E-04   -0.15691E-04  2104   0.104E-02
RMM:   7    -0.143689417863E+04   -0.56007E-05   -0.56097E-05  2104   0.593E-03
RMM:   8    -0.143689418159E+04   -0.29592E-05   -0.29649E-05  4133   0.359E-03
RMM:   9    -0.143689418236E+04   -0.76828E-06   -0.79049E-06  3891   0.176E-03
RMM:  10    -0.143689418243E+04   -0.68190E-07   -0.73067E-07  2663   0.680E-04    0.251E-01
RMM:  11    -0.143689432993E+04   -0.14751E-03   -0.80025E-04  6905   0.133E-02    0.235E-01
RMM:  12    -0.143689497215E+04   -0.64221E-03   -0.11632E-03  6745   0.140E-02    0.281E-01
RMM:  13    -0.143689524131E+04   -0.26916E-03   -0.11755E-03  6765   0.140E-02    0.302E-01
RMM:  14    -0.143689480015E+04    0.44115E-03   -0.14722E-03  6924   0.162E-02    0.203E-01
RMM:  15    -0.143689435419E+04    0.44596E-03   -0.12958E-03  6957   0.156E-02    0.134E-01
RMM:  16    -0.143689393924E+04    0.41495E-03   -0.42397E-04  6483   0.888E-03    0.666E-02
RMM:  17    -0.143689393187E+04    0.73675E-05   -0.85710E-05  5824   0.428E-03    0.689E-02
RMM:  18    -0.143689393164E+04    0.23273E-06   -0.13669E-06  2688   0.105E-03
   2 F= -.13259355E+04 E0= -.13259061E+04  d E =-.354210E+00  mag=    -1.6255
       N       E                     dE             d eps       ncg     rms          rms(c)
RMM:   1    -0.143688548843E+04    0.84434E-02   -0.26500E+00  2104   0.116E+00
RMM:   2    -0.143690295670E+04   -0.17468E-01   -0.18167E-01  2104   0.397E-01
RMM:   3    -0.143690637040E+04   -0.34137E-02   -0.34138E-02  2104   0.152E-01
RMM:   4    -0.143690724883E+04   -0.87843E-03   -0.88271E-03  2104   0.824E-02
RMM:   5    -0.143690751254E+04   -0.26371E-03   -0.26400E-03  2104   0.426E-02
RMM:   6    -0.143690759935E+04   -0.86810E-04   -0.87063E-04  2104   0.246E-02
RMM:   7    -0.143690763046E+04   -0.31114E-04   -0.31164E-04  2104   0.140E-02
RMM:   8    -0.143690764698E+04   -0.16524E-04   -0.16556E-04  4491   0.846E-03
RMM:   9    -0.143690765145E+04   -0.44696E-05   -0.45958E-05  4506   0.409E-03
RMM:  10    -0.143690765178E+04   -0.32819E-06   -0.35875E-06  3216   0.136E-03    0.599E-01
RMM:  11    -0.143690834674E+04   -0.69496E-03   -0.40621E-03  7043   0.303E-02    0.560E-01
RMM:  12    -0.143691300973E+04   -0.46630E-02   -0.62338E-03  6980   0.325E-02    0.693E-01
RMM:  13    -0.143691200938E+04    0.10003E-02   -0.61645E-03  6943   0.321E-02    0.629E-01
RMM:  14    -0.143691332056E+04   -0.13112E-02   -0.86430E-03  7124   0.397E-02    0.543E-01
RMM:  15    -0.143690977817E+04    0.35424E-02   -0.57167E-03  7057   0.342E-02    0.412E-01
RMM:  16    -0.143690959665E+04    0.18152E-03   -0.26978E-04  5717   0.915E-03    0.410E-01
RMM:  17    -0.143690842965E+04    0.11670E-02   -0.11781E-03  6623   0.177E-02    0.337E-01
RMM:  18    -0.143690649490E+04    0.19348E-02   -0.31839E-03  6945   0.288E-02    0.170E-01
RMM:  19    -0.143690600552E+04    0.48938E-03   -0.11453E-03  6633   0.162E-02    0.105E-01
RMM:  20    -0.143690585237E+04    0.15315E-03   -0.32974E-04  5902   0.856E-03    0.700E-02
RMM:  21    -0.143690584500E+04    0.73704E-05   -0.17731E-04  5389   0.619E-03    0.611E-02
RMM:  22    -0.143690579113E+04    0.53871E-04   -0.11902E-04  5253   0.547E-03    0.394E-02
RMM:  23    -0.143690576546E+04    0.25663E-04   -0.48882E-05  4642   0.390E-03    0.233E-02
RMM:  24    -0.143690575677E+04    0.86930E-05   -0.15802E-05  4081   0.273E-03    0.125E-02
RMM:  25    -0.143690575502E+04    0.17482E-05   -0.49318E-06  3800   0.175E-03    0.807E-03
RMM:  26    -0.143690575425E+04    0.76844E-06   -0.18289E-06  2712   0.106E-03
   3 F= -.13267485E+04 E0= -.13267200E+04  d E =-.116723E+01  mag=    -1.6666
       N       E                     dE             d eps       ncg     rms          rms(c)
RMM:   1    -0.143691069780E+04   -0.49428E-02   -0.47154E-01  2104   0.475E-01
RMM:   2    -0.143691455722E+04   -0.38594E-02   -0.41615E-02  2104   0.190E-01
RMM:   3    -0.143691540388E+04   -0.84666E-03   -0.84609E-03  2104   0.754E-02
RMM:   4    -0.143691562709E+04   -0.22321E-03   -0.22480E-03  2104   0.412E-02
RMM:   5    -0.143691569481E+04   -0.67717E-04   -0.67762E-04  2104   0.213E-02
RMM:   6    -0.143691571699E+04   -0.22185E-04   -0.22265E-04  2104   0.124E-02
RMM:   7    -0.143691572486E+04   -0.78636E-05   -0.78737E-05  2104   0.699E-03
RMM:   8    -0.143691572868E+04   -0.38231E-05   -0.38322E-05  4155   0.424E-03
RMM:   9    -0.143691572984E+04   -0.11574E-05   -0.11791E-05  3994   0.211E-03
RMM:  10    -0.143691572993E+04   -0.96057E-07   -0.10372E-06  2677   0.791E-04    0.212E-01
RMM:  11    -0.143691580996E+04   -0.80022E-04   -0.10085E-03  6765   0.141E-02    0.209E-01
RMM:  12    -0.143691591681E+04   -0.10686E-03   -0.81085E-04  6601   0.118E-02    0.222E-01
RMM:  13    -0.143691602564E+04   -0.10883E-03   -0.56626E-04  6518   0.976E-03    0.218E-01
RMM:  14    -0.143691620946E+04   -0.18382E-03   -0.10783E-03  6797   0.135E-02    0.181E-01
RMM:  15    -0.143691555112E+04    0.65834E-03   -0.78776E-04  6856   0.127E-02    0.794E-02
RMM:  16    -0.143691545229E+04    0.98837E-04   -0.21286E-04  6343   0.654E-03    0.626E-02
RMM:  17    -0.143691545471E+04   -0.24243E-05   -0.27870E-05  4629   0.273E-03    0.669E-02
RMM:  18    -0.143691545516E+04   -0.45539E-06   -0.52089E-06  3790   0.139E-03
   4 F= -.13271033E+04 E0= -.13270751E+04  d E =-.354839E+00  mag=    -1.6968
       N       E                     dE             d eps       ncg     rms          rms(c)
RMM:   1    -0.143689371033E+04    0.21744E-01   -0.36378E+00  2104   0.132E+00
RMM:   2    -0.143692349583E+04   -0.29785E-01   -0.32085E-01  2104   0.527E-01
RMM:   3    -0.143693001840E+04   -0.65226E-02   -0.65172E-02  2104   0.209E-01
RMM:   4    -0.143693173819E+04   -0.17198E-02   -0.17319E-02  2104   0.114E-01
RMM:   5    -0.143693226009E+04   -0.52189E-03   -0.52223E-03  2104   0.592E-02
RMM:   6    -0.143693243116E+04   -0.17108E-03   -0.17169E-03  2104   0.344E-02
RMM:   7    -0.143693249184E+04   -0.60679E-04   -0.60757E-04  2104   0.194E-02
RMM:   8    -0.143693252146E+04   -0.29619E-04   -0.29687E-04  4455   0.118E-02
RMM:   9    -0.143693253064E+04   -0.91812E-05   -0.93543E-05  4600   0.581E-03
RMM:  10    -0.143693253142E+04   -0.77613E-06   -0.83751E-06  3768   0.197E-03    0.599E-01
RMM:  11    -0.143693284802E+04   -0.31661E-03   -0.74135E-03  6905   0.384E-02    0.581E-01
RMM:  12    -0.143693404693E+04   -0.11989E-02   -0.57067E-03  6758   0.315E-02    0.605E-01
RMM:  13    -0.143693501280E+04   -0.96587E-03   -0.46443E-03  6633   0.277E-02    0.619E-01
RMM:  14    -0.143693811805E+04   -0.31052E-02   -0.91500E-03  6959   0.399E-02    0.551E-01
RMM:  15    -0.143693291391E+04    0.52041E-02   -0.65427E-03  6962   0.367E-02    0.367E-01
RMM:  16    -0.143693256220E+04    0.35172E-03   -0.74110E-04  6052   0.134E-02    0.364E-01
RMM:  17    -0.143693243412E+04    0.12807E-03   -0.27447E-04  5353   0.843E-03    0.348E-01
RMM:  18    -0.143693058038E+04    0.18537E-02   -0.23505E-03  6676   0.256E-02    0.195E-01
RMM:  19    -0.143693036235E+04    0.21803E-03   -0.14767E-03  6497   0.179E-02    0.161E-01
RMM:  20    -0.143692981316E+04    0.54919E-03   -0.60631E-04  5904   0.112E-02    0.752E-02
RMM:  21    -0.143692976165E+04    0.51510E-04   -0.17128E-04  5045   0.652E-03    0.524E-02
RMM:  22    -0.143692973172E+04    0.29932E-04   -0.80080E-05  4626   0.504E-03    0.357E-02
RMM:  23    -0.143692972090E+04    0.10818E-04   -0.40742E-05  4226   0.395E-03    0.265E-02
RMM:  24    -0.143692971010E+04    0.10803E-04   -0.16178E-05  4038   0.286E-03    0.141E-02
RMM:  25    -0.143692970914E+04    0.95848E-06   -0.66201E-06  3816   0.188E-03
   5 F= -.13280331E+04 E0= -.13280056E+04  d E =-.128457E+01  mag=    -1.7245
       N       E                     dE             d eps       ncg     rms          rms(c)
RMM:   1    -0.143693200922E+04   -0.22991E-02   -0.85047E-01  2104   0.636E-01
RMM:   2    -0.143693906301E+04   -0.70538E-02   -0.76075E-02  2104   0.255E-01
RMM:   3    -0.143694063123E+04   -0.15682E-02   -0.15672E-02  2104   0.102E-01
RMM:   4    -0.143694104878E+04   -0.41755E-03   -0.42079E-03  2104   0.559E-02
RMM:   5    -0.143694117686E+04   -0.12807E-03   -0.12817E-03  2104   0.290E-02
RMM:   6    -0.143694121932E+04   -0.42470E-04   -0.42642E-04  2104   0.169E-02
RMM:   7    -0.143694123460E+04   -0.15274E-04   -0.15296E-04  2104   0.959E-03
RMM:   8    -0.143694124243E+04   -0.78301E-05   -0.78499E-05  4319   0.583E-03
RMM:   9    -0.143694124464E+04   -0.22148E-05   -0.22681E-05  4189   0.284E-03
RMM:  10    -0.143694124481E+04   -0.16694E-06   -0.18326E-06  2800   0.100E-03    0.232E-01
RMM:  11    -0.143694157315E+04   -0.32834E-03   -0.79831E-04  6747   0.132E-02    0.245E-01
RMM:  12    -0.143694219889E+04   -0.62574E-03   -0.11272E-03  6596   0.134E-02    0.314E-01
RMM:  13    -0.143694162892E+04    0.56996E-03   -0.11912E-03  6793   0.148E-02    0.197E-01
RMM:  14    -0.143694158501E+04    0.43912E-04   -0.16679E-03  6915   0.176E-02    0.159E-01
RMM:  15    -0.143694097352E+04    0.61149E-03   -0.77959E-04  6745   0.125E-02    0.829E-02
RMM:  16    -0.143694086215E+04    0.11137E-03   -0.27606E-04  6160   0.701E-03    0.600E-02
RMM:  17    -0.143694079096E+04    0.71190E-04   -0.98616E-05  5320   0.452E-03    0.352E-02
RMM:  18    -0.143694077913E+04    0.11832E-04   -0.35260E-05  4650   0.301E-03    0.256E-02
RMM:  19    -0.143694077829E+04    0.84334E-06   -0.17955E-05  4125   0.226E-03    0.220E-02
RMM:  20    -0.143694077600E+04    0.22821E-05   -0.10860E-05  3927   0.189E-03    0.186E-02
RMM:  21    -0.143694077479E+04    0.12161E-05   -0.26022E-06  2981   0.118E-03    0.190E-02
RMM:  22    -0.143694077239E+04    0.23979E-05   -0.12299E-06  2649   0.786E-04    0.153E-02
RMM:  23    -0.143694076958E+04    0.28109E-05   -0.29751E-06  3087   0.109E-03    0.935E-03
RMM:  24    -0.143694076861E+04    0.96354E-06   -0.14921E-06  2668   0.805E-04
   6 F= -.13285470E+04 E0= -.13285197E+04  d E =-.513900E+00  mag=    -1.7377
       N       E                     dE             d eps       ncg     rms          rms(c)
RMM:   1    -0.143690168517E+04    0.39084E-01   -0.52416E+00  2104   0.158E+00
RMM:   2    -0.143694535459E+04   -0.43669E-01   -0.46932E-01  2104   0.635E-01
RMM:   3    -0.143695502038E+04   -0.96658E-02   -0.96551E-02  2104   0.253E-01
RMM:   4    -0.143695759462E+04   -0.25742E-02   -0.25937E-02  2104   0.139E-01
RMM:   5    -0.143695838456E+04   -0.78994E-03   -0.79053E-03  2104   0.722E-02
RMM:   6    -0.143695864675E+04   -0.26219E-03   -0.26324E-03  2104   0.421E-02
RMM:   7    -0.143695874114E+04   -0.94387E-04   -0.94524E-04  2104   0.239E-02
RMM:   8    -0.143695878967E+04   -0.48526E-04   -0.48647E-04  4467   0.145E-02
RMM:   9    -0.143695880362E+04   -0.13953E-04   -0.14281E-04  4612   0.707E-03
RMM:  10    -0.143695880475E+04   -0.11333E-05   -0.12385E-05  4004   0.238E-03    0.574E-01
RMM:  11    -0.143696008749E+04   -0.12827E-02   -0.43707E-03  6750   0.312E-02    0.578E-01
RMM:  12    -0.143696537250E+04   -0.52850E-02   -0.66862E-03  6613   0.326E-02    0.801E-01
RMM:  13    -0.143696065754E+04    0.47150E-02   -0.71975E-03  6847   0.365E-02    0.479E-01
RMM:  14    -0.143696145836E+04   -0.80082E-03   -0.10011E-02  6935   0.432E-02    0.405E-01
RMM:  15    -0.143695706178E+04    0.43966E-02   -0.48319E-03  6750   0.306E-02    0.209E-01
RMM:  16    -0.143695658612E+04    0.47566E-03   -0.15820E-03  6153   0.171E-02    0.167E-01
RMM:  17    -0.143695626700E+04    0.31912E-03   -0.42930E-04  5206   0.101E-02    0.142E-01
RMM:  18    -0.143695632279E+04   -0.55783E-04   -0.18805E-05  4050   0.363E-03    0.152E-01
RMM:  19    -0.143695612642E+04    0.19636E-03   -0.19885E-04  5373   0.790E-03    0.109E-01
RMM:  20    -0.143695598909E+04    0.13733E-03   -0.25639E-04  5641   0.787E-03    0.695E-02
RMM:  21    -0.143695598313E+04    0.59630E-05   -0.17046E-04  5398   0.639E-03    0.582E-02
RMM:  22    -0.143695595059E+04    0.32535E-04   -0.11596E-04  5100   0.516E-03    0.412E-02
RMM:  23    -0.143695592000E+04    0.30595E-04   -0.56025E-05  4631   0.383E-03    0.265E-02
RMM:  24    -0.143695590739E+04    0.12605E-04   -0.15973E-05  3942   0.253E-03    0.135E-02
RMM:  25    -0.143695590576E+04    0.16360E-05   -0.44928E-06  3577   0.160E-03    0.858E-03
RMM:  26    -0.143695590518E+04    0.57074E-06   -0.19342E-06  2743   0.997E-04
   7 F= -.13298050E+04 E0= -.13297781E+04  d E =-.177192E+01  mag=    -1.7589
       N       E                     dE             d eps       ncg     rms          rms(c)
RMM:   1    -0.143695364024E+04    0.22655E-02   -0.12501E+00  2104   0.763E-01
RMM:   2    -0.143696453721E+04   -0.10897E-01   -0.11851E-01  2104   0.318E-01
RMM:   3    -0.143696700666E+04   -0.24694E-02   -0.24670E-02  2104   0.126E-01
RMM:   4    -0.143696766761E+04   -0.66096E-03   -0.66631E-03  2104   0.697E-02
RMM:   5    -0.143696787101E+04   -0.20340E-03   -0.20353E-03  2104   0.361E-02
RMM:   6    -0.143696793856E+04   -0.67545E-04   -0.67824E-04  2104   0.211E-02
RMM:   7    -0.143696796286E+04   -0.24301E-04   -0.24335E-04  2104   0.119E-02
RMM:   8    -0.143696797504E+04   -0.12177E-04   -0.12209E-04  4387   0.728E-03
RMM:   9    -0.143696797882E+04   -0.37813E-05   -0.38559E-05  4336   0.357E-03
RMM:  10    -0.143696797907E+04   -0.25629E-06   -0.28646E-06  3011   0.120E-03    0.257E-01
RMM:  11    -0.143696913589E+04   -0.11568E-02   -0.15006E-03  6742   0.171E-02    0.349E-01
RMM:  12    -0.143696844488E+04    0.69101E-03   -0.14411E-03  6532   0.151E-02    0.294E-01
