 vasp.6.2.0 18Jan21 (build Jan 15 2025 16:08:48) gamma-only                     
  
 executed on             LinuxIFC date 2025.03.07  10:53:52
 running on   96 total cores
 each image running on   24 cores
 distrk:  each k-point on   24 cores,    1 groups
 distr:  one band on NCORE=   6 cores,    4 groups


--------------------------------------------------------------------------------------------------------


 INCAR:
   SYSTEM = LiMox
   LWAVE = .FALSE.
   LCHARG = .FALSE.
   ISTART = 0
   ISMEAR = 0
   SIGMA = 0.05
   ICHARG = 2
   IBRION = 2
   POTIM = 0.2
   ISIF = 2
   NSW = 1200
   NELM = 800
   NELMIN = 2
   ISYM = 0
   ISPIN = 2
   IDIPOL = 3
   LMAXMIX = 4
   ADDGRID = .TRUE.
   ALGO = VeryFast
   NELMDL = 10
   AMIX = 0.2
   BMIX = 0.00001
   AMIX_MAG = 0.8
   BMIX_MAG = 0.00001
   LREAL = Auto
   PREC = Accurate
   EDIFF = 1E-06
   EDIFFG = -0.03
   ENCUT = 400.0
   GGA = PE
   NEDOS = 903
   NPAR = 4
   NNODE = 8
   NCORE = 8
   NWRITE = 0
   IMAGES = 4
   SPRING = -5
   ICHAIN = 0
   LCLIMB = TRUE
   IOPT = 0

 POTCAR:    PAW_PBE Mo 08Apr2002                  
 POTCAR:    PAW_PBE S 06Sep2000                   
 POTCAR:    PAW_PBE Li 17Jan2003                  
 -----------------------------------------------------------------------------
|                                                                             |
|           W    W    AA    RRRRR   N    N  II  N    N   GGGG   !!!           |
|           W    W   A  A   R    R  NN   N  II  NN   N  G    G  !!!           |
|           W    W  A    A  R    R  N N  N  II  N N  N  G       !!!           |
|           W WW W  AAAAAA  RRRRR   N  N N  II  N  N N  G  GGG   !            |
|           WW  WW  A    A  R   R   N   NN  II  N   NN  G    G                |
|           W    W  A    A  R    R  N    N  II  N    N   GGGG   !!!           |
|                                                                             |
|     You use a magnetic or noncollinear calculation, but did not specify     |
|     the initial magnetic moment with the MAGMOM tag. Note that a            |
|     default of 1 will be used for all atoms. This ferromagnetic setup       |
|     may break the symmetry of the crystal, in particular it may rule        |
|     out finding an antiferromagnetic solution. Thence, we recommend         |
|     setting the initial magnetic moment manually or verifying carefully     |
|     that this magnetic setup is desired.                                    |
|                                                                             |
 -----------------------------------------------------------------------------

 -----------------------------------------------------------------------------
|                                                                             |
|           W    W    AA    RRRRR   N    N  II  N    N   GGGG   !!!           |
|           W    W   A  A   R    R  NN   N  II  NN   N  G    G  !!!           |
|           W    W  A    A  R    R  N N  N  II  N N  N  G       !!!           |
|           W WW W  AAAAAA  RRRRR   N  N N  II  N  N N  G  GGG   !            |
|           WW  WW  A    A  R   R   N   NN  II  N   NN  G    G                |
|           W    W  A    A  R    R  N    N  II  N    N   GGGG   !!!           |
|                                                                             |
|     The value NCORE = 8 specified in the INCAR file was overwritten,        |
|     because it was not compatible with the 24 processes available:          |
|     NCORE = 6                                                               |
|     was used instead, please check that this makes sense for your           |
|     machine.                                                                |
|                                                                             |
 -----------------------------------------------------------------------------

 POTCAR:    PAW_PBE Mo 08Apr2002                  
  local pseudopotential read in
  partial core-charges read in
  partial kinetic energy density read in
  atomic valenz-charges read in
  non local Contribution for L=           2  read in
    real space projection operators read in
  non local Contribution for L=           2  read in
    real space projection operators read in
  non local Contribution for L=           0  read in
    real space projection operators read in
  non local Contribution for L=           0  read in
    real space projection operators read in
  non local Contribution for L=           1  read in
    real space projection operators read in
  non local Contribution for L=           1  read in
    real space projection operators read in
    PAW grid and wavefunctions read in
 
   number of l-projection  operators is LMAX  =           6
   number of lm-projection operators is LMMAX =          18
 
 POTCAR:    PAW_PBE S 06Sep2000                   
  local pseudopotential read in
  partial core-charges read in
  partial kinetic energy density read in
  atomic valenz-charges read in
  non local Contribution for L=           0  read in
    real space projection operators read in
  non local Contribution for L=           0  read in
    real space projection operators read in
  non local Contribution for L=           1  read in
    real space projection operators read in
  non local Contribution for L=           1  read in
    real space projection operators read in
    PAW grid and wavefunctions read in
 
   number of l-projection  operators is LMAX  =           4
   number of lm-projection operators is LMMAX =           8
 
 POTCAR:    PAW_PBE Li 17Jan2003                  
  local pseudopotential read in
  partial core-charges read in
  partial kinetic energy density read in
  atomic valenz-charges read in
  non local Contribution for L=           0  read in
    real space projection operators read in
  non local Contribution for L=           0  read in
    real space projection operators read in
  non local Contribution for L=           1  read in
    real space projection operators read in
    PAW grid and wavefunctions read in
 
   number of l-projection  operators is LMAX  =           3
   number of lm-projection operators is LMMAX =           5
 
 Optimization of the real space projectors (new method)

 maximal supplied QI-value         = 13.61
 optimisation between [QCUT,QGAM] = [ 10.20, 20.41] = [ 29.16,116.64] Ry 
 Optimized for a Real-space Cutoff    1.65 Angstroem

   l    n(q)    QCUT    max X(q) W(low)/X(q) W(high)/X(q)  e(spline) 
   2      9    10.205    80.908    0.21E-03    0.30E-03    0.60E-06
   2      9    10.205    79.000    0.21E-03    0.30E-03    0.60E-06
   0     10    10.205    52.066    0.39E-04    0.38E-04    0.19E-06
   0     10    10.205    24.514    0.33E-04    0.32E-04    0.16E-06
   1     10    10.205    16.033    0.64E-04    0.17E-03    0.19E-06
   1     10    10.205    11.179    0.49E-04    0.13E-03    0.15E-06
 Optimization of the real space projectors (new method)

 maximal supplied QI-value         = 19.84
 optimisation between [QCUT,QGAM] = [ 10.12, 20.44] = [ 28.68,116.96] Ry 
 Optimized for a Real-space Cutoff    1.42 Angstroem

   l    n(q)    QCUT    max X(q) W(low)/X(q) W(high)/X(q)  e(spline) 
   0      9    10.119   187.594    0.52E-04    0.93E-04    0.64E-07
   0      9    10.119   164.243    0.51E-04    0.92E-04    0.63E-07
   1      8    10.119    67.533    0.16E-03    0.17E-03    0.23E-06
   1      8    10.119    50.729    0.16E-03    0.16E-03    0.23E-06
 Optimization of the real space projectors (new method)

 maximal supplied QI-value         = 18.33
 optimisation between [QCUT,QGAM] = [ 10.08, 20.35] = [ 28.46,115.93] Ry 
 Optimized for a Real-space Cutoff    1.30 Angstroem

   l    n(q)    QCUT    max X(q) W(low)/X(q) W(high)/X(q)  e(spline) 
   0      8    10.082    33.825    0.15E-03    0.68E-04    0.45E-07
   0      8    10.082     8.944    0.11E-03    0.57E-04    0.35E-07
   1      7    10.082     4.214    0.54E-04    0.21E-03    0.44E-07
  PAW_PBE Mo 08Apr2002                  :
 energy of atom  1       EATOM= -217.5176
 kinetic energy error for atom=    0.0025 (will be added to EATOM!!)
  PAW_PBE S 06Sep2000                   :
 energy of atom  2       EATOM= -276.8230
 kinetic energy error for atom=    0.0046 (will be added to EATOM!!)
  PAW_PBE Li 17Jan2003                  :
 energy of atom  3       EATOM=   -5.3001
 kinetic energy error for atom=    0.0000 (will be added to EATOM!!)
 
 
 POSCAR: Mo  S Li
  positions in cartesian coordinates
  No initial velocities read in
 exchange correlation table for  LEXCH =        8
   RHO(1)=    0.500       N(1)  =     2000
   RHO(2)=  100.500       N(2)  =     4000

 VTST: version 4.0, (05/15/20)

 CHAIN: initializing optimizer
 
 OPT: Using VASP Conjugate-Gradient optimizer
 CHAIN: Read ICHAIN            0
 CHAIN: Running the NEB
 NEB:          SPRING     -5.000000
 NEB:          LCLIMB      T
 NEB:     LTANGENTOLD      F
 NEB:           LDNEB      F
 NEB:        LDNEBORG      F
 NEB:        LNEBCELL      F
 NEB:          EFIRST      0.000000
 NEB:           ELAST      0.000000
 
 POSCAR: Mo  S Li
  positions in cartesian coordinates
  No initial velocities read in
 
 POSCAR: Mo  S Li
  positions in cartesian coordinates
  No initial velocities read in
 
 POSCAR: Mo  S Li
  positions in cartesian coordinates
  No initial velocities read in
 
 POSCAR: Mo  S Li
  positions in cartesian coordinates
  No initial velocities read in
 


--------------------------------------------------------------------------------------------------------


 ion  position               nearest neighbor table
   1  0.537  0.088  0.673- 135 2.30  52 2.33  99 2.35 209 2.39 174 2.57 203 2.61  36 2.75  25 2.82

   2  0.864  0.423  0.656-  95 2.13 112 2.38 131 2.39  64 2.40 211 2.45 149 2.46 191 2.86  19 3.26

   3  0.761  0.562  0.012- 115 2.33 187 2.38 221 2.40  58 2.45 256 2.46 249 2.53  12 2.96  47 3.00

   4  0.897  0.797  0.839- 217 2.13 178 2.26 201 2.30 177 2.43 167 2.94  13 2.97  17 3.30  22 3.46

   5  0.279  0.462  0.163- 165 2.34 146 2.39  71 2.39 128 2.42 219 2.42 106 2.45 120 2.47  28 2.67

   6  0.535  0.532  0.376- 157 2.31 109 2.34  89 2.40 244 2.44 183 2.51 142 2.55  30 2.71  20 3.11

   7  0.645  0.913  0.740- 108 2.34 204 2.37 224 2.40 223 2.42 214 2.49 175 2.54  37 3.14  36 3.28

   8  0.061  0.977  0.738- 132 2.22 153 2.35 248 2.39 156 2.44 102 2.51 240 2.59 197 2.64  10 2.89

   9  0.762  0.246  0.137-  77 2.27  79 2.29  76 2.31  78 2.34 145 2.44  14 2.78
  10  0.973  0.908  0.735-  94 2.37 182 2.38 132 2.44 248 2.47 177 2.49 156 2.51  17 2.73   8 2.89
                            22 2.92
  11  0.365  0.964  0.084- 230 2.22  53 2.38  59 2.40  97 2.46 105 2.49 220 2.49  16 2.84
  12  0.703  0.507  0.117- 221 2.24 207 2.30  91 2.33 115 2.34  84 2.38   3 2.96
  13  0.907  0.683  0.738- 228 2.32 130 2.38 178 2.42  66 2.45 201 2.47 246 2.66  34 2.76   4 2.97

  14  0.877  0.264  0.190-  78 2.29 122 2.29  79 2.36 253 2.41 252 2.43 181 2.54   9 2.78
  15  0.185  0.542  0.555-  57 2.23 199 2.29 159 2.42  80 2.47 243 2.48 161 2.56  40 2.74
  16  0.418  0.920  0.961- 220 2.34 105 2.36 241 2.38 232 2.50 198 2.56 230 2.59  11 2.84  32 2.86
                            39 2.92
  17  0.884  0.933  0.765- 167 2.23 236 2.31  94 2.35 177 2.36 193 2.49  10 2.73  22 2.96   4 3.30

  18  0.627  0.071  0.230- 137 2.39 133 2.44 136 2.45 234 2.45  56 2.46 147 2.52  38 2.73  27 2.93
                            24 2.99  32 3.08
  19  0.728  0.385  0.567-  64 2.32 168 2.39  73 2.43 216 2.47 227 2.48 191 2.50 112 2.70  30 2.86
                             2 3.26
  20  0.586  0.490  0.225- 143 2.32 212 2.43 207 2.45  89 2.46 183 2.48 168 2.54 255 2.57  30 2.81
                             6 3.11
  21  0.350  0.087  0.316- 121 2.22  59 2.26  54 2.36 203 2.43 124 2.48  48 2.81  52 3.05
  22  0.848  0.854  0.536- 238 2.32 182 2.33  94 2.43 167 2.44 201 2.58  62 2.72  10 2.92  17 2.96
                             4 3.46
  23  0.211  0.684  0.494- 205 2.29 161 2.35  68 2.41 192 2.45  88 2.54  80 2.57  45 2.69  41 2.85
                           257 3.08
  24  0.490  0.104  0.074- 213 2.38 137 2.43 210 2.45 218 2.45 136 2.50 105 2.59  26 2.82  32 2.97
                            44 2.99  18 2.99
  25  0.602  0.081  0.568- 224 2.38  52 2.39  99 2.40 206 2.42 111 2.57 136 2.67   1 2.82  36 2.86
                            37 2.98
  26  0.481  0.194  0.920- 213 2.28 210 2.39 174 2.41 235 2.46 170 2.49 154 2.60  44 2.72  24 2.82
                            27 3.07
  27  0.626  0.174  0.107-  56 2.38 145 2.47  76 2.51 174 2.53 133 2.54 154 2.59 213 2.63  38 2.81
                            18 2.93  26 3.07
  28  0.257  0.352  0.075- 165 2.29 123 2.47 200 2.47 104 2.47 120 2.48  71 2.49 146 2.60   5 2.67
                            43 3.21
  29  0.835  0.968  0.036- 113 2.15 117 2.28 175 2.34 141 2.43 193 2.56  37 2.91
  30  0.606  0.436  0.444-  89 2.35 157 2.37 168 2.40  73 2.44 227 2.49 255 2.50   6 2.71  20 2.81
                            19 2.86
  31  0.339  0.777  0.254- 176 2.31 148 2.39 231 2.39 251 2.43  98 2.53  93 2.59 245 2.60  35 2.79

  32  0.528  0.986  0.174-  82 2.38 136 2.39 241 2.42 137 2.42 105 2.42  97 2.53  39 2.82  16 2.86
                            24 2.97  18 3.08
  33  0.018  0.193  0.948- 164 2.17  96 2.35 101 2.42 188 2.54 126 2.56  61 2.57 184 2.63  42 2.85

  34  0.870  0.677  0.476- 233 2.13 130 2.31 228 2.36 254 2.38  62 2.47  13 2.76
  35  0.211  0.750  0.045- 251 2.21 231 2.33 155 2.37 185 2.41 169 2.42  93 2.45  31 2.79
  36  0.520  0.992  0.519- 224 2.33 135 2.37  52 2.41 223 2.45  97 2.48 124 2.74   1 2.75  25 2.86
                             7 3.28
  37  0.720  0.028  0.813- 111 2.22 117 2.31 175 2.32  99 2.40 224 2.68  29 2.91  25 2.98   7 3.14

  38  0.738  0.124  0.336- 160 2.31  56 2.34 133 2.34 125 2.43 145 2.44 234 2.54  18 2.73  27 2.81

  39  0.516  0.874  0.233- 241 2.40  82 2.42 150 2.44  60 2.45 220 2.45  97 2.49 166 2.58  32 2.82
                            16 2.92
  40  0.190  0.466  0.722- 159 2.37  57 2.40 103 2.44  83 2.46 243 2.52 146 2.55  86 2.59  15 2.74

  41  0.345  0.669  0.682- 161 2.30 192 2.32  92 2.38 242 2.39 151 2.44  50 2.63  23 2.85  45 2.89
                           257 2.99
  42  0.104  0.177  0.892- 247 2.30 188 2.42 240 2.44 101 2.44 195 2.46  61 2.57  33 2.85  43 2.91
                            48 3.41
  43  0.218  0.223  0.953- 247 2.29  74 2.36 195 2.37 200 2.43 104 2.49 123 2.62  42 2.91  48 3.01
                            28 3.21
  44  0.377  0.181  0.901- 218 2.25 210 2.31 152 2.32 235 2.36 170 2.61  26 2.72  24 2.99
  45  0.280  0.765  0.696- 205 2.30 192 2.31 139 2.37 151 2.48 144 2.51 198 2.66  23 2.69  41 2.89

  46  0.209  0.247  0.312- 225 2.23 129 2.35  72 2.40 188 2.47 123 2.49 180 2.57  48 2.87
  47  0.866  0.580  0.000- 256 2.19 249 2.22  67 2.32 246 2.38  63 2.44   3 3.00
  48  0.253  0.169  0.205- 195 2.36  54 2.39 121 2.45 123 2.47 225 2.54 188 2.60  21 2.81  46 2.87
                            43 3.01  42 3.41
  49  0.225  0.884  0.253- 194 2.09  93 2.12
  50  0.414  0.584  0.696-  92 2.04 162 2.31  41 2.63
  51  0.049  0.779  0.330- 229 2.08 138 2.09
  52  0.490  0.088  0.441-   1 2.33  25 2.39  36 2.41  21 3.05
  53  0.311  0.929  0.158- 176 2.07  11 2.38
  54  0.365  0.186  0.364- 186 2.21  21 2.36  48 2.39
  55  0.037  0.469  0.646-  83 2.05 100 2.05
  56  0.670  0.084  0.111-  38 2.34  27 2.38  18 2.46
  57  0.098  0.503  0.506-  15 2.23  40 2.40
  58  0.691  0.633  0.842- 208 2.07   3 2.45
  59  0.345  0.057  0.135-  21 2.26  11 2.40
  60  0.603  0.806  0.309- 150 2.00  39 2.45
  61  0.081  0.275  0.952- 184 2.09  33 2.57  42 2.57
  62  0.836  0.770  0.362- 254 2.05  34 2.47  22 2.72
  63  0.961  0.543  0.037-  67 2.05  47 2.44
  64  0.774  0.473  0.608-  19 2.32   2 2.40
  65  0.178  0.055  0.415-  90 2.07 202 2.09
  66  0.985  0.606  0.818- 196 2.03  13 2.45
  67  0.949  0.524  0.177-  63 2.05  47 2.32
  68  0.140  0.736  0.286-  88 2.03  23 2.41
  69  0.676  0.224  0.683- 206 2.05 158 2.06
  70  0.015  0.061  0.405- 237 1.99 116 2.11
  71  0.223  0.400  0.200- 120 2.08   5 2.39  28 2.49
  72  0.156  0.224  0.401- 180 2.05  46 2.40
  73  0.694  0.428  0.690- 227 2.04  19 2.43  30 2.44
  74  0.249  0.161  0.848- 152 2.08  43 2.36
  75  0.555  0.736  0.913- 163 2.03  87 2.22
  76  0.665  0.200  0.981-   9 2.31  27 2.51
  77  0.738  0.339  0.077- 122 2.13   9 2.27
  78  0.866  0.240  0.348-  14 2.29   9 2.34
  79  0.789  0.208  0.009-   9 2.29  14 2.36
  80  0.115  0.617  0.392- 119 2.12  15 2.47  23 2.57
  81  0.403  0.624  0.305-  98 2.12 142 2.13
  82  0.609  0.936  0.376-  32 2.38  39 2.42 224 2.49
  83  0.126  0.503  0.788-  55 2.05  40 2.46
  84  0.602  0.463  0.953- 143 2.04  12 2.38
  85  0.273  0.471  0.457- 199 1.96
  86  0.259  0.393  0.709- 172 2.03  40 2.59 159 2.68
  87  0.563  0.644  0.876- 162 1.96  75 2.22
  88  0.168  0.662  0.249-  68 2.03 257 2.41  23 2.54
  89  0.643  0.528  0.463-  30 2.35   6 2.40  20 2.46
  90  0.222  0.024  0.608- 239 2.04  65 2.07
  91  0.805  0.468  0.271- 187 2.04  12 2.33
  92  0.402  0.657  0.598-  50 2.04  41 2.38 257 2.61
  93  0.248  0.796  0.263-  49 2.12  35 2.45  31 2.59
  94  0.875  0.955  0.573-  17 2.35  10 2.37  22 2.43
  95  0.896  0.492  0.611-   2 2.13
  96  0.015  0.259  0.090- 180 2.11  33 2.35
  97  0.480  0.961  0.285-  11 2.46  36 2.48  39 2.49  32 2.53
  98  0.434  0.711  0.352- 148 2.00  81 2.12  31 2.53
  99  0.648  0.092  0.805-   1 2.35  25 2.40  37 2.40
 100  0.054  0.383  0.646-  55 2.05 103 2.06
 101  0.989  0.188  0.721- 184 2.15  33 2.42  42 2.44
 102  0.988  0.062  0.631- 240 2.08 237 2.19   8 2.51
 103  0.129  0.377  0.642- 100 2.06  40 2.44
 104  0.316  0.279  0.049- 200 2.08  28 2.47  43 2.49
 105  0.418  0.018  0.015-  16 2.36  32 2.42  11 2.49  24 2.59
 106  0.257  0.559  0.082- 128 2.08   5 2.45
 107  0.431  0.856  0.621- 245 1.99 114 2.21
 108  0.635  0.914  0.910- 214 2.05   7 2.34 135 2.78
 109  0.567  0.616  0.510- 142 2.03   6 2.34
 110  0.482  0.331  0.726- 171 2.01 140 2.13
 111  0.720  0.084  0.675-  37 2.22  25 2.57
 112  0.780  0.377  0.442- 131 2.04   2 2.38  19 2.70
 113  0.817  0.919  0.148-  29 2.15
 114  0.359  0.872  0.647- 232 2.04 198 2.09 107 2.21
 115  0.690  0.486  0.916-   3 2.33  12 2.34
 116  0.053  0.145  0.451- 250 2.01  70 2.11
 117  0.799  0.057  0.040-  29 2.28  37 2.31
 118  0.595  0.779  0.554- 166 2.06 204 2.06
 119  0.054  0.648  0.433- 229 2.03  80 2.12
 120  0.170  0.422  0.995-  71 2.08   5 2.47  28 2.48
 121  0.256  0.068  0.254-  21 2.22  48 2.45
 122  0.829  0.352  0.128-  77 2.13  14 2.29 252 2.78
 123  0.237  0.273  0.167-  28 2.47  48 2.47  46 2.49  43 2.62
 124  0.400  0.997  0.441- 203 2.07  21 2.48  36 2.74
 125  0.842  0.137  0.562- 160 2.02  38 2.43
 126  0.904  0.207  0.857- 215 2.03  33 2.56
 127  0.100  0.531  0.062- 196 1.94
 128  0.266  0.548  0.256- 106 2.08 219 2.08   5 2.42 257 2.76
 129  0.258  0.326  0.465- 172 2.11  46 2.35
 130  0.830  0.620  0.551-  34 2.31  13 2.38
 131  0.866  0.336  0.551- 112 2.04   2 2.39
 132  0.986  0.921  0.562-   8 2.22  10 2.44
 133  0.662  0.165  0.348-  38 2.34  18 2.44  27 2.54 213 2.57
 134  0.495  0.270  0.492- 186 2.02 171 2.15
 135  0.544  0.995  0.736-   1 2.30  36 2.37 108 2.78
 136  0.567  0.071  0.316-  32 2.39  18 2.45  24 2.50  25 2.67
 137  0.535  0.030  0.015-  18 2.39  32 2.42  24 2.43
 138  0.025  0.834  0.425- 189 2.03  51 2.09
 139  0.223  0.850  0.587- 144 2.03  45 2.37
 140  0.578  0.305  0.885- 154 2.06 110 2.13
 141  0.946  0.939  0.203- 189 2.11  29 2.43 193 2.73
 142  0.489  0.586  0.475- 109 2.03  81 2.13   6 2.55
 143  0.546  0.453  0.009-  84 2.04  20 2.32
 144  0.242  0.844  0.770- 139 2.03  45 2.51 230 2.56
 145  0.731  0.223  0.272-   9 2.44  38 2.44  27 2.47
 146  0.273  0.435  0.970-   5 2.39  40 2.55  28 2.60
 147  0.685  0.977  0.297- 234 2.10 173 2.11  18 2.52
 148  0.393  0.745  0.168-  98 2.00  31 2.39
 149  0.966  0.397  0.879- 211 2.04   2 2.46
 150  0.516  0.771  0.192-  60 2.00  39 2.44
 151  0.348  0.694  0.877- 242 2.07  41 2.44  45 2.48
 152  0.270  0.202  0.739-  74 2.08  44 2.32
 153  0.159  0.939  0.816- 197 2.04   8 2.35
 154  0.568  0.272  0.019- 140 2.06  27 2.59  26 2.60
 155  0.106  0.782  0.946- 169 2.07  35 2.37
 156  0.040  0.989  0.900- 248 2.04   8 2.44  10 2.51
 157  0.530  0.454  0.475-   6 2.31  30 2.37
 158  0.747  0.225  0.669-  69 2.06 216 2.07
 159  0.281  0.506  0.767- 243 2.08  40 2.37  15 2.42  86 2.68
 160  0.837  0.094  0.412- 125 2.02  38 2.31
 161  0.269  0.598  0.572-  41 2.30  23 2.35  15 2.56 257 2.97
 162  0.515  0.596  0.907-  87 1.96  50 2.31 212 2.79
 163  0.575  0.764  0.796-  75 2.03 226 2.06
 164  0.014  0.104  0.980-  33 2.17
 165  0.355  0.388  0.254-  28 2.29   5 2.34
 166  0.516  0.828  0.415- 118 2.06 223 2.20  39 2.58
 167  0.798  0.877  0.638-  17 2.23  22 2.44   4 2.94
 168  0.642  0.395  0.326-  19 2.39  30 2.40  20 2.54 255 2.69
 169  0.115  0.745  0.806- 185 2.06 155 2.07  35 2.42
 170  0.381  0.245  0.743- 235 2.07  26 2.49  44 2.61
 171  0.485  0.348  0.575- 110 2.01 134 2.15
 172  0.203  0.349  0.524-  86 2.03 129 2.11
 173  0.743  0.960  0.241- 238 2.09 147 2.11
 174  0.539  0.141  0.860- 209 2.10  26 2.41  27 2.53   1 2.57
 175  0.753  0.936  0.809-  37 2.32  29 2.34   7 2.54
 176  0.371  0.872  0.311-  53 2.07  31 2.31
 177  0.973  0.874  0.919-  17 2.36   4 2.43  10 2.49
 178  0.977  0.732  0.962-   4 2.26  13 2.42
 179  0.757  0.653  0.689- 208 2.03 246 2.11
 180  0.107  0.287  0.261-  72 2.05  96 2.11  46 2.57
 181  0.925  0.179  0.148- 215 2.10 250 2.16  14 2.54
 182  0.947  0.817  0.616- 228 2.30  22 2.33  10 2.38
 183  0.509  0.568  0.160- 212 2.11  20 2.48   6 2.51 244 2.67
 184  0.985  0.275  0.776-  61 2.09 101 2.15  33 2.63
 185  0.156  0.667  0.892- 169 2.06  35 2.41
 186  0.414  0.238  0.314- 134 2.02  54 2.21
 187  0.846  0.511  0.209-  91 2.04   3 2.38
 188  0.138  0.176  0.122-  42 2.42  46 2.47  33 2.54  48 2.60
 189  0.935  0.863  0.270- 138 2.03 141 2.11
 190  0.424  0.429  0.109- 244 2.06 255 2.08
 191  0.832  0.349  0.779- 211 2.12  19 2.50   2 2.86
 192  0.293  0.745  0.535-  45 2.31  41 2.32  23 2.45 257 2.69
 193  0.902  0.987  0.963- 236 2.09  17 2.49  29 2.56 141 2.73
 194  0.133  0.882  0.190- 222 2.06  49 2.09
 195  0.205  0.127  0.985-  48 2.36  43 2.37  42 2.46
 196  0.048  0.598  0.025- 127 1.94  66 2.03
 197  0.117  0.973  0.629- 153 2.04 239 2.16   8 2.64
 198  0.385  0.826  0.815- 114 2.09  16 2.56  45 2.66
 199  0.190  0.480  0.416-  85 1.96  15 2.29
 200  0.231  0.306  0.865- 104 2.08  43 2.43  28 2.47
 201  0.830  0.762  0.614-   4 2.30  13 2.47  22 2.58
 202  0.097  0.005  0.276- 222 2.05  65 2.09
 203  0.418  0.070  0.561- 124 2.07  21 2.43   1 2.61
 204  0.667  0.838  0.642- 118 2.06   7 2.37
 205  0.196  0.714  0.649-  23 2.29  45 2.30
 206  0.597  0.181  0.518-  69 2.05  25 2.42
 207  0.688  0.508  0.277-  12 2.30  20 2.45
 208  0.728  0.691  0.789- 179 2.03  58 2.07
 209  0.523  0.187  0.701- 174 2.10   1 2.39
 210  0.412  0.113  0.823-  44 2.31  26 2.39  24 2.45
 211  0.895  0.420  0.887- 149 2.04 191 2.12   2 2.45
 212  0.592  0.591  0.193- 183 2.11  20 2.43 162 2.79
 213  0.546  0.193  0.155-  26 2.28  24 2.38 133 2.57  27 2.63
 214  0.702  0.856  0.951- 108 2.05 226 2.18   7 2.49
 215  0.888  0.151  0.950- 126 2.03 181 2.10
 216  0.734  0.281  0.529- 158 2.07  19 2.47
 217  0.853  0.799  0.931-   4 2.13
 218  0.425  0.156  0.118-  44 2.25  24 2.45
 219  0.356  0.512  0.382- 128 2.08   5 2.42
 220  0.400  0.864  0.085-  16 2.34  39 2.45  11 2.49
 221  0.718  0.601  0.117-  12 2.24   3 2.40
 222  0.123  0.921  0.325- 202 2.05 194 2.06
 223  0.533  0.890  0.573- 166 2.20   7 2.42  36 2.45
 224  0.619  0.981  0.573-  36 2.33  25 2.38   7 2.40  82 2.49  37 2.68
 225  0.284  0.181  0.442-  46 2.23  48 2.54
 226  0.673  0.767  0.917- 163 2.06 214 2.18
 227  0.651  0.351  0.594-  73 2.04  19 2.48  30 2.49
 228  0.962  0.723  0.673- 182 2.30  13 2.32  34 2.36
 229  0.999  0.704  0.280- 119 2.03  51 2.08
 230  0.301  0.940  0.860-  11 2.22 144 2.56  16 2.59
 231  0.287  0.689  0.220-  35 2.33 257 2.34  31 2.39
 232  0.388  0.951  0.740- 114 2.04  16 2.50
 233  0.914  0.620  0.423-  34 2.13
 234  0.728  0.043  0.449- 147 2.10  18 2.45  38 2.54
 235  0.426  0.271  0.945- 170 2.07  44 2.36  26 2.46
 236  0.865  0.029  0.782- 193 2.09  17 2.31
 237  0.946  0.073  0.416-  70 1.99 102 2.19
 238  0.769  0.876  0.306- 173 2.09  22 2.32
 239  0.174  0.047  0.680-  90 2.04 197 2.16
 240  0.083  0.086  0.765- 102 2.08  42 2.44   8 2.59
 241  0.525  0.898  0.061-  16 2.38  39 2.40  32 2.42
 242  0.434  0.697  0.914- 151 2.07  41 2.39
 243  0.234  0.567  0.798- 159 2.08  15 2.48  40 2.52
 244  0.426  0.514  0.167- 190 2.06   6 2.44 183 2.67
 245  0.412  0.780  0.522- 107 1.99  31 2.60
 246  0.856  0.637  0.835- 179 2.11  47 2.38  13 2.66
 247  0.114  0.237  0.766-  43 2.29  42 2.30
 248  0.090  0.917  0.920- 156 2.04   8 2.39  10 2.47
 249  0.845  0.638  0.111-  47 2.22   3 2.53
 250  0.026  0.170  0.270- 116 2.01 181 2.16
 251  0.264  0.810  0.020-  35 2.21  31 2.43
 252  0.950  0.331  0.216- 253 2.02  14 2.43 122 2.78
 253  0.986  0.285  0.384- 252 2.02  14 2.41
 254  0.767  0.709  0.283-  62 2.05  34 2.38
 255  0.517  0.408  0.196- 190 2.08  30 2.50  20 2.57 168 2.69
 256  0.784  0.523  0.863-  47 2.19   3 2.46
 257  0.281  0.653  0.383- 231 2.34  88 2.41  92 2.61 192 2.69 128 2.76 161 2.97  41 2.99  23 3.08

 

IMPORTANT INFORMATION: All symmetrisations will be switched off!
NOSYMM: (Re-)initialisation of all symmetry stuff for point group C_1.


----------------------------------------------------------------------------------------

                                     Primitive cell                                     

  volume of cell :    6163.4969

  direct lattice vectors                    reciprocal lattice vectors
    27.120398187  0.402360350 -2.402807027     0.039265674 -0.000001116  0.027010185
     0.301744657 23.362465222 -0.437691370    -0.000563784  0.042826122  0.000808004
    -7.129577944 -0.289405483 10.364511012     0.009079162  0.001808280  0.102778985

  length of vectors
    27.229604721 23.368513107 12.583231926     0.047658611  0.042837453  0.103195062

  position of ions in fractional coordinates (direct lattice)
     0.536511259  0.087766851  0.672974348
     0.864211842  0.422666499  0.656492791
     0.761194592  0.561762483  0.012192248
     0.897392907  0.796699406  0.839097596
     0.278921236  0.461540564  0.163387112
     0.534997651  0.531555818  0.376102815
     0.645362426  0.912991015  0.739768897
     0.060618360  0.977025685  0.738325586
     0.762449323  0.245734122  0.136526827
     0.973197193  0.907628030  0.734610542
     0.365457627  0.963984810  0.083786788
     0.703358613  0.507147306  0.116786738
     0.907233114  0.683378603  0.737515104
     0.876721300  0.263795267  0.189602935
     0.184611751  0.541540375  0.554837254
     0.417560209  0.919586139  0.960866698
     0.884130256  0.933056870  0.765414883
     0.626559926  0.070917177  0.229910838
     0.727888861  0.384641590  0.566969204
     0.586495299  0.490142164  0.225256128
     0.350370570  0.086918486  0.315907883
     0.848452302  0.853656011  0.535757089
     0.210540334  0.683900722  0.494243227
     0.490034829  0.104010148  0.073601404
     0.602311609  0.081222834  0.568256426
     0.481419327  0.193568576  0.919610079
     0.626236831  0.174499972  0.107183477
     0.256762223  0.352029778  0.075473939
     0.834811381  0.968098626  0.035667712
     0.606088762  0.435539480  0.443691465
     0.339189828  0.776956267  0.253721557
     0.527530178  0.985660102  0.174089875
     0.018439053  0.193143531  0.947811888
     0.869889809  0.677092422  0.475628430
     0.210709271  0.749854760  0.045029086
     0.519955035  0.991627519  0.519235284
     0.720217237  0.027502672  0.812747932
     0.738196765  0.123874364  0.335815159
     0.516407296  0.873832493  0.232507997
     0.189544539  0.466304926  0.721843532
     0.345146706  0.668970575  0.682101257
     0.104346192  0.176759967  0.891744197
     0.218295190  0.222555286  0.952757214
     0.377157655  0.180975251  0.900934268
     0.279798107  0.764804931  0.696346329
     0.208970682  0.246718702  0.311893594
     0.866202704  0.579833582  0.000049615
     0.252943294  0.168834315  0.205449396
     0.224859490  0.883925561  0.253013922
     0.414320290  0.584027545  0.695703338
     0.049385481  0.779209480  0.330432174
     0.489973374  0.088342843  0.440925075
     0.310676762  0.929235157  0.158162085
     0.364918181  0.186425248  0.364079087
     0.036898194  0.469494334  0.645621352
     0.670257728  0.084095275  0.111342578
     0.098382200  0.502774094  0.506371238
     0.690659165  0.633495353  0.841570691
     0.344569895  0.057264562  0.134681431
     0.602887648  0.806454234  0.309192228
     0.080980626  0.274985523  0.952426673
     0.836298090  0.770318366  0.362423630
     0.960588952  0.543304186  0.036784855
     0.774379552  0.473291322  0.607715477
     0.177567505  0.055434964  0.415249964
     0.984852117  0.605990517  0.817975720
     0.948835295  0.524480395  0.176735999
     0.139697782  0.736078129  0.285996539
     0.675500953  0.223865403  0.682746204
     0.015213906  0.061249623  0.404645364
     0.222903194  0.399984359  0.200164067
     0.156458680  0.223990273  0.401483649
     0.693915263  0.427596722  0.690314285
     0.248531426  0.161226168  0.848494034
     0.554893892  0.735745208  0.913235157
     0.665438691  0.200106136  0.980769984
     0.738467216  0.338784324  0.076573502
     0.865823450  0.240396463  0.347994605
     0.789370876  0.207567737  0.009209264
     0.115266048  0.617427123  0.392425389
     0.403178523  0.624207406  0.305349084
     0.608700643  0.935978953  0.376201002
     0.126465204  0.503323184  0.787898744
     0.601540334  0.463124854  0.953396007
     0.272532770  0.470967217  0.457044219
     0.258956191  0.392748890  0.709312283
     0.562680677  0.643603684  0.876108087
     0.167579558  0.661753713  0.248867057
     0.642883426  0.528253441  0.462682896
     0.221655501  0.023640603  0.608378559
     0.804695169  0.467857457  0.270809567
     0.402461480  0.656920717  0.598076724
     0.248054951  0.795941864  0.263493201
     0.874845126  0.954816060  0.572627053
     0.896429808  0.491872612  0.611157264
     0.015283053  0.259001744  0.090156981
     0.479854792  0.961237896  0.285068331
     0.433689245  0.710971639  0.351587524
     0.647679287  0.091885867  0.805336808
     0.054091045  0.383442605  0.645911758
     0.988688789  0.187632182  0.721004038
     0.987652995  0.061679730  0.630931744
     0.128641996  0.377349328  0.642059977
     0.315942016  0.278948472  0.049195013
     0.417977223  0.017917568  0.014684549
     0.257233062  0.559444587  0.082157118
     0.431269432  0.855929655  0.620842595
     0.634677572  0.914231588  0.910176531
     0.567210485  0.616490603  0.509926258
     0.482266221  0.330615112  0.726462198
     0.719936327  0.084047323  0.674930248
     0.779959001  0.376887735  0.442050923
     0.816577955  0.919349225  0.148464123
     0.358786925  0.871937736  0.646662423
     0.689682932  0.485757006  0.915788078
     0.053337794  0.144762154  0.451377290
     0.798883918  0.056924643  0.039676870
     0.594549508  0.779094554  0.553569518
     0.054137500  0.647650812  0.432949237
     0.170152161  0.421977925  0.995151261
     0.255765619  0.067778128  0.254496353
     0.828672811  0.351678867  0.128101896
     0.237109686  0.272690121  0.166789132
     0.400277646  0.997089580  0.440849626
     0.842258316  0.136803481  0.561839722
     0.903905386  0.206986907  0.856866777
     0.100189425  0.530933080  0.062489858
     0.265822432  0.548028017  0.256105536
     0.258367000  0.326452965  0.464762289
     0.830079010  0.620492140  0.550887891
     0.866243785  0.336338872  0.550607517
     0.985514597  0.921245059  0.561774262
     0.662389854  0.164883274  0.348156762
     0.495009295  0.269991059  0.491631150
     0.543637882  0.995302490  0.735998951
     0.567419531  0.071490925  0.315953601
     0.535105100  0.030364260  0.015428097
     0.024761409  0.834439269  0.424832704
     0.223362216  0.850041270  0.586725316
     0.578052994  0.304775031  0.884732003
     0.945521793  0.939084787  0.202799413
     0.488866361  0.585538843  0.475241079
     0.546369733  0.453447969  0.008749068
     0.242222470  0.844404838  0.769858964
     0.730634297  0.222526748  0.271821737
     0.272725075  0.435064892  0.969743200
     0.685463265  0.976964661  0.296942658
     0.392787130  0.744596037  0.168475777
     0.965628749  0.396633436  0.879168142
     0.516453244  0.770871888  0.191701667
     0.348338987  0.693947412  0.876662563
     0.269747321  0.202206724  0.738934454
     0.158854128  0.938685266  0.815618715
     0.567875578  0.271852731  0.018959140
     0.106300402  0.781611222  0.945597083
     0.040050305  0.989112971  0.900155880
     0.530015336  0.453695299  0.474992994
     0.746935193  0.225379635  0.668978788
     0.280831197  0.505604747  0.767234060
     0.837197320  0.093597018  0.412082093
     0.269051756  0.597971881  0.572369386
     0.515065956  0.596088491  0.906759828
     0.575280721  0.764400769  0.795738497
     0.013796311  0.103885119  0.980379722
     0.355398472  0.388475325  0.254286357
     0.515937047  0.828352245  0.414984573
     0.798114519  0.877000573  0.637630783
     0.642372806  0.394988196  0.326074254
     0.115313165  0.744995103  0.805933312
     0.381120261  0.245240147  0.742659579
     0.485133033  0.347730551  0.575368350
     0.203026429  0.349389446  0.524235641
     0.742688040  0.960039389  0.240643081
     0.538754314  0.140811051  0.859627229
     0.753433431  0.935537527  0.809110962
     0.370546741  0.871735613  0.311019327
     0.972813933  0.873865373  0.919027681
     0.976943513  0.732258984  0.961799676
     0.756901714  0.653357915  0.688668098
     0.107345232  0.287337686  0.260845947
     0.924621042  0.179479736  0.148356287
     0.947081398  0.817091044  0.616196327
     0.508633720  0.567620198  0.159848108
     0.985106231  0.275033352  0.776096777
     0.155655780  0.667252337  0.892044272
     0.414355468  0.237827508  0.313976205
     0.846041505  0.511355496  0.208537302
     0.137732162  0.176096816  0.121866974
     0.935278529  0.862798028  0.270407174
     0.423922056  0.429409283  0.109279815
     0.831943600  0.348945240  0.779139176
     0.293211314  0.744680007  0.535088289
     0.901715443  0.987016396  0.962699897
     0.133104063  0.881543363  0.189984566
     0.204770250  0.126836451  0.985235576
     0.048450978  0.598166592  0.025435505
     0.117263237  0.972508632  0.629016381
     0.384733144  0.826392102  0.815049463
     0.190328513  0.479921755  0.415841560
     0.231157077  0.306071809  0.864965165
     0.830081921  0.762239023  0.614446457
     0.096513941  0.004624833  0.276320758
     0.418041985  0.069855941  0.561019936
     0.667124499  0.837979377  0.641762857
     0.196284476  0.713870721  0.648593959
     0.596546806  0.180878184  0.517721288
     0.688262669  0.507551924  0.276657660
     0.727845459  0.691122379  0.788789693
     0.522577314  0.187172745  0.700951407
     0.411743006  0.112825742  0.823238256
     0.895083171  0.419670110  0.886779166
     0.592076972  0.590641704  0.192960381
     0.545738676  0.192697368  0.154704238
     0.702253821  0.855906341  0.951101494
     0.888494734  0.150567997  0.950408285
     0.733805540  0.280916240  0.529216966
     0.853051569  0.798960443  0.930687177
     0.424607609  0.155605115  0.117520152
     0.356415606  0.512024832  0.381715374
     0.400345331  0.863961628  0.084794119
     0.717914161  0.600815009  0.117060817
     0.122849793  0.920670369  0.324775823
     0.532953288  0.889874623  0.572621817
     0.618942705  0.980569202  0.572739369
     0.283649494  0.181363221  0.442469509
     0.673099842  0.766784920  0.917264017
     0.650829105  0.351074736  0.593819544
     0.962098022  0.722507252  0.673476748
     0.999107158  0.703733684  0.279722301
     0.301128694  0.940409131  0.859835292
     0.286867556  0.689305604  0.220045905
     0.388265668  0.951363349  0.739515642
     0.914192565  0.619601033  0.423373439
     0.727912277  0.043278494  0.449047096
     0.425845459  0.270515796  0.945304376
     0.864784881  0.028546626  0.781682918
     0.945964430  0.072595880  0.416358879
     0.769396109  0.875858362  0.305883643
     0.174370040  0.047185713  0.680358078
     0.083089371  0.086009712  0.764640501
     0.524936543  0.897988831  0.061127657
     0.434133700  0.696689715  0.913962420
     0.233564109  0.566793564  0.797691885
     0.425534830  0.513830570  0.166689228
     0.411820744  0.780427709  0.521624987
     0.855790816  0.637145211  0.835390466
     0.113521925  0.237356152  0.766013501
     0.089679663  0.917304903  0.919959019
     0.845229144  0.638296336  0.110658668
     0.026250671  0.169969083  0.270246364
     0.263750096  0.809683201  0.019607724
     0.950489381  0.331074164  0.216071141
     0.986490463  0.285221451  0.383936994
     0.767061964  0.709498409  0.283224362
     0.517348445  0.408149358  0.195954819
     0.784032446  0.522580424  0.862711484
     0.281438027  0.653342364  0.382735678

  ion indices of the primitive-cell ions
   primitive index   ion index
                 1           1
                 2           2
                 3           3
                 4           4
                 5           5
                 6           6
                 7           7
                 8           8
                 9           9
                10          10
                11          11
                12          12
                13          13
                14          14
                15          15
                16          16
                17          17
                18          18
                19          19
                20          20
                21          21
                22          22
                23          23
                24          24
                25          25
                26          26
                27          27
                28          28
                29          29
                30          30
                31          31
                32          32
                33          33
                34          34
                35          35
                36          36
                37          37
                38          38
                39          39
                40          40
                41          41
                42          42
                43          43
                44          44
                45          45
                46          46
                47          47
                48          48
                49          49
                50          50
                51          51
                52          52
                53          53
                54          54
                55          55
                56          56
                57          57
                58          58
                59          59
                60          60
                61          61
                62          62
                63          63
                64          64
                65          65
                66          66
                67          67
                68          68
                69          69
                70          70
                71          71
                72          72
                73          73
                74          74
                75          75
                76          76
                77          77
                78          78
                79          79
                80          80
                81          81
                82          82
                83          83
                84          84
                85          85
                86          86
                87          87
                88          88
                89          89
                90          90
                91          91
                92          92
                93          93
                94          94
                95          95
                96          96
                97          97
                98          98
                99          99
               100         100
               101         101
               102         102
               103         103
               104         104
               105         105
               106         106
               107         107
               108         108
               109         109
               110         110
               111         111
               112         112
               113         113
               114         114
               115         115
               116         116
               117         117
               118         118
               119         119
               120         120
               121         121
               122         122
               123         123
               124         124
               125         125
               126         126
               127         127
               128         128
               129         129
               130         130
               131         131
               132         132
               133         133
               134         134
               135         135
               136         136
               137         137
               138         138
               139         139
               140         140
               141         141
               142         142
               143         143
               144         144
               145         145
               146         146
               147         147
               148         148
               149         149
               150         150
               151         151
               152         152
               153         153
               154         154
               155         155
               156         156
               157         157
               158         158
               159         159
               160         160
               161         161
               162         162
               163         163
               164         164
               165         165
               166         166
               167         167
               168         168
               169         169
               170         170
               171         171
               172         172
               173         173
               174         174
               175         175
               176         176
               177         177
               178         178
               179         179
               180         180
               181         181
               182         182
               183         183
               184         184
               185         185
               186         186
               187         187
               188         188
               189         189
               190         190
               191         191
               192         192
               193         193
               194         194
               195         195
               196         196
               197         197
               198         198
               199         199
               200         200
               201         201
               202         202
               203         203
               204         204
               205         205
               206         206
               207         207
               208         208
               209         209
               210         210
               211         211
               212         212
               213         213
               214         214
               215         215
               216         216
               217         217
               218         218
               219         219
               220         220
               221         221
               222         222
               223         223
               224         224
               225         225
               226         226
               227         227
               228         228
               229         229
               230         230
               231         231
               232         232
               233         233
               234         234
               235         235
               236         236
               237         237
               238         238
               239         239
               240         240
               241         241
               242         242
               243         243
               244         244
               245         245
               246         246
               247         247
               248         248
               249         249
               250         250
               251         251
               252         252
               253         253
               254         254
               255         255
               256         256
               257         257

----------------------------------------------------------------------------------------

 
 
 KPOINTS: Automatic_mesh                          

Automatic generation of k-mesh.
 Grid dimensions read from file:
 generate k-points for:    1    1    1

 Generating k-lattice:

  Cartesian coordinates                     Fractional coordinates (reciprocal lattice)
     0.039265674 -0.000001116  0.027010185     1.000000000 -0.000000000  0.000000000
    -0.000563784  0.042826122  0.000808004     0.000000000  1.000000000 -0.000000000
     0.009079162  0.001808280  0.102778985    -0.000000000  0.000000000  1.000000000

  Length of vectors
     0.047658611  0.042837453  0.103195062

  Shift w.r.t. Gamma in fractional coordinates (k-lattice)
     0.000000000  0.000000000  0.000000000

 
 Subroutine IBZKPT returns following result:
 ===========================================
 
 Found      1 irreducible k-points:
 
 Following reciprocal coordinates:
            Coordinates               Weight
  0.000000  0.000000  0.000000      1.000000
 
 Following cartesian coordinates:
            Coordinates               Weight
  0.000000  0.000000  0.000000      1.000000
 


--------------------------------------------------------------------------------------------------------




 Dimension of arrays:
   k-points           NKPTS =      1   k-points in BZ     NKDIM =      1   number of bands    NBANDS=   1052
   number of dos      NEDOS =    903   number of ions     NIONS =    257
   non local maximal  LDIM  =      6   non local SUM 2l+1 LMDIM =     18
   total plane-waves  NPLWV = ******
   max r-space proj   IRMAX =   7414   max aug-charges    IRDMAX= 201780
   dimension x,y,z NGX =   180 NGY =  160 NGZ =   84
   dimension x,y,z NGXF=   360 NGYF=  320 NGZF=  168
   support grid    NGXF=   720 NGYF=  640 NGZF=  336
   ions per type =              48 208   1
   NGX,Y,Z   is equivalent  to a cutoff of  10.99, 11.38, 11.10 a.u.
   NGXF,Y,Z  is equivalent  to a cutoff of  21.98, 22.77, 22.20 a.u.

 SYSTEM =  LiMox                                   
 POSCAR =  Mo  S Li                                

 Startparameter for this run:
   NWRITE =      0    write-flag & timer
   PREC   = accura    normal or accurate (medium, high low for compatibility)
   ISTART =      0    job   : 0-new  1-cont  2-samecut
   ICHARG =      2    charge: 1-file 2-atom 10-const
   ISPIN  =      2    spin polarized calculation?
   LNONCOLLINEAR =      F non collinear calculations
   LSORBIT =      F    spin-orbit coupling
   INIWAV =      1    electr: 0-lowe 1-rand  2-diag
   LASPH  =      F    aspherical Exc in radial PAW
   METAGGA=      F    non-selfconsistent MetaGGA calc.

 Electronic Relaxation 1
   ENCUT  =  400.0 eV  29.40 Ry    5.42 a.u.  44.40 38.11 20.52*2*pi/ulx,y,z
   ENINI  =  400.0     initial cutoff
   ENAUG  =  345.3 eV  augmentation charge cutoff
   NELM   =    800;   NELMIN=  2; NELMDL= 10     # of ELM steps 
   EDIFF  = 0.1E-05   stopping-criterion for ELM
   LREAL  =      T    real-space projection
   NLSPLINE    = F    spline interpolate recip. space projectors
   LCOMPAT=      F    compatible to vasp.4.4
   GGA_COMPAT  = T    GGA compatible to vasp.4.4-vasp.4.6
   LMAXPAW     = -100 max onsite density
   LMAXMIX     =    4 max onsite mixed and CHGCAR
   VOSKOWN=      0    Vosko Wilk Nusair interpolation
   ROPT   =   -0.00025  -0.00025  -0.00025
 Ionic relaxation
   EDIFFG = -.3E-01   stopping-criterion for IOM
   NSW    =   1200    number of steps for IOM
   NBLOCK =      1;   KBLOCK =   1200    inner block; outer block 
   IBRION =      2    ionic relax: 0-MD 1-quasi-New 2-CG
   NFREE  =      1    steps in history (QN), initial steepest desc. (CG)
   ISIF   =      2    stress and relaxation
   IWAVPR =     11    prediction:  0-non 1-charg 2-wave 3-comb
   ISYM   =      0    0-nonsym 1-usesym 2-fastsym
   LCORR  =      T    Harris-Foulkes like correction to forces

   POTIM  = 0.2000    time-step for ionic-motion
   TEIN   =    0.0    initial temperature
   TEBEG  =    0.0;   TEEND  =   0.0 temperature during run
   SMASS  =  -3.00    Nose mass-parameter (am)
   estimated Nose-frequenzy (Omega)   =  0.10E-29 period in steps = 0.31E+47 mass=  -0.169E-25a.u.
   SCALEE = 1.0000    scale energy and forces
   NPACO  =    256;   APACO  = 16.0  distance and # of slots for P.C.
   PSTRESS=    0.0 pullay stress

  Mass of Ions in am
   POMASS =  95.94 32.07  7.01
  Ionic Valenz
   ZVAL   =   6.00  6.00  1.00
  Atomic Wigner-Seitz radii
   RWIGS  =  -1.00 -1.00 -1.00
  virtual crystal weights 
   VCA    =   1.00  1.00  1.00
   NELECT =    1537.0000    total number of electrons
   NUPDOWN=      -1.0000    fix difference up-down

 DOS related values:
   EMIN   =  10.00;   EMAX   =-10.00  energy-range for DOS
   EFERMI =   0.00
   ISMEAR =     0;   SIGMA  =   0.05  broadening in eV -4-tet -1-fermi 0-gaus

 Electronic relaxation 2 (details)
   IALGO  =     48    algorithm
   LDIAG  =      T    sub-space diagonalisation (order eigenvalues)
   LSUBROT=      F    optimize rotation matrix (better conditioning)
   TURBO    =      0    0=normal 1=particle mesh
   IRESTART =      0    0=no restart 2=restart with 2 vectors
   NREBOOT  =      0    no. of reboots
   NMIN     =      0    reboot dimension
   EREF     =   0.00    reference energy to select bands
   IMIX   =      4    mixing-type and parameters
     AMIX     =   0.20;   BMIX     =  0.00
     AMIX_MAG =   0.80;   BMIX_MAG =  0.00
     AMIN     =   0.10
     WC   =   100.;   INIMIX=   1;  MIXPRE=   1;  MAXMIX= -45

 Intra band minimization:
   WEIMIN = 0.0010     energy-eigenvalue tresh-hold
   EBREAK =  0.24E-09  absolut break condition
   DEPER  =   0.30     relativ break condition  

   TIME   =   0.40     timestep for ELM

  volume/ion in A,a.u.               =      23.98       161.84
  Fermi-wavevector in a.u.,A,eV,Ry     =   1.030442  1.947254 14.446823  1.061812
  Thomas-Fermi vector in A             =   2.164541
 
 Write flags
   LWAVE        =      F    write WAVECAR
   LDOWNSAMPLE  =      F    k-point downsampling of WAVECAR
   LCHARG       =      F    write CHGCAR
   LVTOT        =      F    write LOCPOT, total local potential
   LVHAR        =      F    write LOCPOT, Hartree potential only
   LELF         =      F    write electronic localiz. function (ELF)
   LORBIT       =      0    0 simple, 1 ext, 2 COOP (PROOUT), +10 PAW based schemes


 Dipole corrections
   LMONO  =      F    monopole corrections only (constant potential shift)
   LDIPOL =      F    correct potential (dipole corrections)
   IDIPOL =      3    1-x, 2-y, 3-z, 4-all directions 
   EPSILON=  1.0000000 bulk dielectric constant

 Exchange correlation treatment:
   GGA     =    PE    GGA type
   LEXCH   =     8    internal setting for exchange type
   VOSKOWN=      0    Vosko Wilk Nusair interpolation
   LHFCALC =     F    Hartree Fock is set to
   LHFONE  =     F    Hartree Fock one center treatment
   AEXX    =    0.0000 exact exchange contribution

 Linear response parameters
   LEPSILON=     F    determine dielectric tensor
   LRPA    =     F    only Hartree local field effects (RPA)
   LNABLA  =     F    use nabla operator in PAW spheres
   LVEL    =     F    velocity operator in full k-point grid
   LINTERFAST=   F  fast interpolation
   KINTER  =     0    interpolate to denser k-point grid
   CSHIFT  =0.1000    complex shift for real part using Kramers Kronig
   OMEGAMAX=  -1.0    maximum frequency
   DEG_THRESHOLD= 0.2000000E-02 threshold for treating states as degnerate
   RTIME   =   -0.100 relaxation time in fs
  (WPLASMAI=    0.000 imaginary part of plasma frequency in eV, 0.658/RTIME)
   DFIELD  = 0.0000000 0.0000000 0.0000000 field for delta impulse in time
 
 Orbital magnetization related:
   ORBITALMAG=     F  switch on orbital magnetization
   LCHIMAG   =     F  perturbation theory with respect to B field
   DQ        =  0.001000  dq finite difference perturbation B field
   LLRAUG    =     F  two centre corrections for induced B field



--------------------------------------------------------------------------------------------------------


 conjugate gradient relaxation of ions
 charge density and potential will be updated during run
 spin polarized calculation
 RMM-DIIS sequential band-by-band
 perform sub-space diagonalisation
    before iterative eigenvector-optimisation
 modified Broyden-mixing scheme, WC =      100.0
 initial mixing is a Kerker type mixing with AMIX =  0.2000 and BMIX =      0.0000
 Hartree-type preconditioning will be used
 using additional bands          283
 real space projection scheme for non local part
 use partial core corrections
 calculate Harris-corrections to forces 
   (improved forces if not selfconsistent)
 use gradient corrections 
 use of overlap-Matrix (Vanderbilt PP)
 Gauss-broadening in eV      SIGMA  =   0.05


--------------------------------------------------------------------------------------------------------


  energy-cutoff  :      400.00
  volume of cell :     6163.50
      direct lattice vectors                 reciprocal lattice vectors
    27.120398187  0.402360350 -2.402807027     0.039265674 -0.000001116  0.027010185
     0.301744657 23.362465222 -0.437691370    -0.000563784  0.042826122  0.000808004
    -7.129577944 -0.289405483 10.364511012     0.009079162  0.001808280  0.102778985

  length of vectors
    27.229604721 23.368513107 12.583231926     0.047658611  0.042837453  0.103195062


 
 k-points in units of 2pi/SCALE and weight: Automatic_mesh                          
   0.00000000  0.00000000  0.00000000       1.000
 
 k-points in reciprocal lattice and weights: Automatic_mesh                          
   0.00000000  0.00000000  0.00000000       1.000
 
 position of ions in fractional coordinates (direct lattice) 
   0.53651126  0.08776685  0.67297435
   0.86421184  0.42266650  0.65649279
   0.76119459  0.56176248  0.01219225
   0.89739291  0.79669941  0.83909760
   0.27892124  0.46154056  0.16338711
   0.53499765  0.53155582  0.37610281
   0.64536243  0.91299101  0.73976890
   0.06061836  0.97702569  0.73832559
   0.76244932  0.24573412  0.13652683
   0.97319719  0.90762803  0.73461054
   0.36545763  0.96398481  0.08378679
   0.70335861  0.50714731  0.11678674
   0.90723311  0.68337860  0.73751510
   0.87672130  0.26379527  0.18960294
   0.18461175  0.54154038  0.55483725
   0.41756021  0.91958614  0.96086670
   0.88413026  0.93305687  0.76541488
   0.62655993  0.07091718  0.22991084
   0.72788886  0.38464159  0.56696920
   0.58649530  0.49014216  0.22525613
   0.35037057  0.08691849  0.31590788
   0.84845230  0.85365601  0.53575709
   0.21054033  0.68390072  0.49424323
   0.49003483  0.10401015  0.07360140
   0.60231161  0.08122283  0.56825643
   0.48141933  0.19356858  0.91961008
   0.62623683  0.17449997  0.10718348
   0.25676222  0.35202978  0.07547394
   0.83481138  0.96809863  0.03566771
   0.60608876  0.43553948  0.44369147
   0.33918983  0.77695627  0.25372156
   0.52753018  0.98566010  0.17408988
   0.01843905  0.19314353  0.94781189
   0.86988981  0.67709242  0.47562843
   0.21070927  0.74985476  0.04502909
   0.51995503  0.99162752  0.51923528
   0.72021724  0.02750267  0.81274793
   0.73819677  0.12387436  0.33581516
   0.51640730  0.87383249  0.23250800
   0.18954454  0.46630493  0.72184353
   0.34514671  0.66897058  0.68210126
   0.10434619  0.17675997  0.89174420
   0.21829519  0.22255529  0.95275721
   0.37715765  0.18097525  0.90093427
   0.27979811  0.76480493  0.69634633
   0.20897068  0.24671870  0.31189359
   0.86620270  0.57983358  0.00004962
   0.25294329  0.16883432  0.20544940
   0.22485949  0.88392556  0.25301392
   0.41432029  0.58402755  0.69570334
   0.04938548  0.77920948  0.33043217
   0.48997337  0.08834284  0.44092507
   0.31067676  0.92923516  0.15816208
   0.36491818  0.18642525  0.36407909
   0.03689819  0.46949433  0.64562135
   0.67025773  0.08409528  0.11134258
   0.09838220  0.50277409  0.50637124
   0.69065917  0.63349535  0.84157069
   0.34456990  0.05726456  0.13468143
   0.60288765  0.80645423  0.30919223
   0.08098063  0.27498552  0.95242667
   0.83629809  0.77031837  0.36242363
   0.96058895  0.54330419  0.03678486
   0.77437955  0.47329132  0.60771548
   0.17756750  0.05543496  0.41524996
   0.98485212  0.60599052  0.81797572
   0.94883529  0.52448040  0.17673600
   0.13969778  0.73607813  0.28599654
   0.67550095  0.22386540  0.68274620
   0.01521391  0.06124962  0.40464536
   0.22290319  0.39998436  0.20016407
   0.15645868  0.22399027  0.40148365
   0.69391526  0.42759672  0.69031428
   0.24853143  0.16122617  0.84849403
   0.55489389  0.73574521  0.91323516
   0.66543869  0.20010614  0.98076998
   0.73846722  0.33878432  0.07657350
   0.86582345  0.24039646  0.34799460
   0.78937088  0.20756774  0.00920926
   0.11526605  0.61742712  0.39242539
   0.40317852  0.62420741  0.30534908
   0.60870064  0.93597895  0.37620100
   0.12646520  0.50332318  0.78789874
   0.60154033  0.46312485  0.95339601
   0.27253277  0.47096722  0.45704422
   0.25895619  0.39274889  0.70931228
   0.56268068  0.64360368  0.87610809
   0.16757956  0.66175371  0.24886706
   0.64288343  0.52825344  0.46268290
   0.22165550  0.02364060  0.60837856
   0.80469517  0.46785746  0.27080957
   0.40246148  0.65692072  0.59807672
   0.24805495  0.79594186  0.26349320
   0.87484513  0.95481606  0.57262705
   0.89642981  0.49187261  0.61115726
   0.01528305  0.25900174  0.09015698
   0.47985479  0.96123790  0.28506833
   0.43368925  0.71097164  0.35158752
   0.64767929  0.09188587  0.80533681
   0.05409105  0.38344261  0.64591176
   0.98868879  0.18763218  0.72100404
   0.98765300  0.06167973  0.63093174
   0.12864200  0.37734933  0.64205998
   0.31594202  0.27894847  0.04919501
   0.41797722  0.01791757  0.01468455
   0.25723306  0.55944459  0.08215712
   0.43126943  0.85592965  0.62084259
   0.63467757  0.91423159  0.91017653
   0.56721049  0.61649060  0.50992626
   0.48226622  0.33061511  0.72646220
   0.71993633  0.08404732  0.67493025
   0.77995900  0.37688773  0.44205092
   0.81657796  0.91934923  0.14846412
   0.35878692  0.87193774  0.64666242
   0.68968293  0.48575701  0.91578808
   0.05333779  0.14476215  0.45137729
   0.79888392  0.05692464  0.03967687
   0.59454951  0.77909455  0.55356952
   0.05413750  0.64765081  0.43294924
   0.17015216  0.42197793  0.99515126
   0.25576562  0.06777813  0.25449635
   0.82867281  0.35167887  0.12810190
   0.23710969  0.27269012  0.16678913
   0.40027765  0.99708958  0.44084963
   0.84225832  0.13680348  0.56183972
   0.90390539  0.20698691  0.85686678
   0.10018942  0.53093308  0.06248986
   0.26582243  0.54802802  0.25610554
   0.25836700  0.32645297  0.46476229
   0.83007901  0.62049214  0.55088789
   0.86624379  0.33633887  0.55060752
   0.98551460  0.92124506  0.56177426
   0.66238985  0.16488327  0.34815676
   0.49500930  0.26999106  0.49163115
   0.54363788  0.99530249  0.73599895
   0.56741953  0.07149092  0.31595360
   0.53510510  0.03036426  0.01542810
   0.02476141  0.83443927  0.42483270
   0.22336222  0.85004127  0.58672532
   0.57805299  0.30477503  0.88473200
   0.94552179  0.93908479  0.20279941
   0.48886636  0.58553884  0.47524108
   0.54636973  0.45344797  0.00874907
   0.24222247  0.84440484  0.76985896
   0.73063430  0.22252675  0.27182174
   0.27272507  0.43506489  0.96974320
   0.68546327  0.97696466  0.29694266
   0.39278713  0.74459604  0.16847578
   0.96562875  0.39663344  0.87916814
   0.51645324  0.77087189  0.19170167
   0.34833899  0.69394741  0.87666256
   0.26974732  0.20220672  0.73893445
   0.15885413  0.93868527  0.81561871
   0.56787558  0.27185273  0.01895914
   0.10630040  0.78161122  0.94559708
   0.04005030  0.98911297  0.90015588
   0.53001534  0.45369530  0.47499299
   0.74693519  0.22537964  0.66897879
   0.28083120  0.50560475  0.76723406
   0.83719732  0.09359702  0.41208209
   0.26905176  0.59797188  0.57236939
   0.51506596  0.59608849  0.90675983
   0.57528072  0.76440077  0.79573850
   0.01379631  0.10388512  0.98037972
   0.35539847  0.38847533  0.25428636
   0.51593705  0.82835224  0.41498457
   0.79811452  0.87700057  0.63763078
   0.64237281  0.39498820  0.32607425
   0.11531316  0.74499510  0.80593331
   0.38112026  0.24524015  0.74265958
   0.48513303  0.34773055  0.57536835
   0.20302643  0.34938945  0.52423564
   0.74268804  0.96003939  0.24064308
   0.53875431  0.14081105  0.85962723
   0.75343343  0.93553753  0.80911096
   0.37054674  0.87173561  0.31101933
   0.97281393  0.87386537  0.91902768
   0.97694351  0.73225898  0.96179968
   0.75690171  0.65335791  0.68866810
   0.10734523  0.28733769  0.26084595
   0.92462104  0.17947974  0.14835629
   0.94708140  0.81709104  0.61619633
   0.50863372  0.56762020  0.15984811
   0.98510623  0.27503335  0.77609678
   0.15565578  0.66725234  0.89204427
   0.41435547  0.23782751  0.31397621
   0.84604151  0.51135550  0.20853730
   0.13773216  0.17609682  0.12186697
   0.93527853  0.86279803  0.27040717
   0.42392206  0.42940928  0.10927981
   0.83194360  0.34894524  0.77913918
   0.29321131  0.74468001  0.53508829
   0.90171544  0.98701640  0.96269990
   0.13310406  0.88154336  0.18998457
   0.20477025  0.12683645  0.98523558
   0.04845098  0.59816659  0.02543551
   0.11726324  0.97250863  0.62901638
   0.38473314  0.82639210  0.81504946
   0.19032851  0.47992176  0.41584156
   0.23115708  0.30607181  0.86496517
   0.83008192  0.76223902  0.61444646
   0.09651394  0.00462483  0.27632076
   0.41804199  0.06985594  0.56101994
   0.66712450  0.83797938  0.64176286
   0.19628448  0.71387072  0.64859396
   0.59654681  0.18087818  0.51772129
   0.68826267  0.50755192  0.27665766
   0.72784546  0.69112238  0.78878969
   0.52257731  0.18717274  0.70095141
   0.41174301  0.11282574  0.82323826
   0.89508317  0.41967011  0.88677917
   0.59207697  0.59064170  0.19296038
   0.54573868  0.19269737  0.15470424
   0.70225382  0.85590634  0.95110149
   0.88849473  0.15056800  0.95040829
   0.73380554  0.28091624  0.52921697
   0.85305157  0.79896044  0.93068718
   0.42460761  0.15560511  0.11752015
   0.35641561  0.51202483  0.38171537
   0.40034533  0.86396163  0.08479412
   0.71791416  0.60081501  0.11706082
   0.12284979  0.92067037  0.32477582
   0.53295329  0.88987462  0.57262182
   0.61894271  0.98056920  0.57273937
   0.28364949  0.18136322  0.44246951
   0.67309984  0.76678492  0.91726402
   0.65082911  0.35107474  0.59381954
   0.96209802  0.72250725  0.67347675
   0.99910716  0.70373368  0.27972230
   0.30112869  0.94040913  0.85983529
   0.28686756  0.68930560  0.22004591
   0.38826567  0.95136335  0.73951564
   0.91419256  0.61960103  0.42337344
   0.72791228  0.04327849  0.44904710
   0.42584546  0.27051580  0.94530438
   0.86478488  0.02854663  0.78168292
   0.94596443  0.07259588  0.41635888
   0.76939611  0.87585836  0.30588364
   0.17437004  0.04718571  0.68035808
   0.08308937  0.08600971  0.76464050
   0.52493654  0.89798883  0.06112766
   0.43413370  0.69668971  0.91396242
   0.23356411  0.56679356  0.79769189
   0.42553483  0.51383057  0.16668923
   0.41182074  0.78042771  0.52162499
   0.85579082  0.63714521  0.83539047
   0.11352192  0.23735615  0.76601350
   0.08967966  0.91730490  0.91995902
   0.84522914  0.63829634  0.11065867
   0.02625067  0.16996908  0.27024636
   0.26375010  0.80968320  0.01960772
   0.95048938  0.33107416  0.21607114
   0.98649046  0.28522145  0.38393699
   0.76706196  0.70949841  0.28322436
   0.51734844  0.40814936  0.19595482
   0.78403245  0.52258042  0.86271148
   0.28143803  0.65334236  0.38273568
 
 position of ions in cartesian coordinates  (Angst):
   9.77885908  2.07155839  5.64750222
  18.88479012 10.03226335  4.54269500
  20.72648369 13.42690248 -1.94851561
  18.59564103 18.73109804  6.19186584
   6.53884122 10.84766709  0.82122130
  11.98828912 12.52486993  2.37996825
  12.50373613 21.37529591  5.71705322
  -3.32514347 22.63644355  7.07909373
  19.77869955  6.00822263 -0.52454049
  21.42990417 21.38340394  4.87821304
   9.60486919 22.64385890 -0.43164289
  18.39575449 12.09741619 -0.70157158
  19.55255773 16.11700256  5.16496840
  22.50484067  6.46079351 -0.25691130
   1.21439565 12.56542569  5.07000287
   4.75130534 21.37372876  8.55310195
  18.80242445 21.93273238  5.40036565
  15.37478634  1.84236550  0.84637098
  15.81444817  9.11496538  3.95902779
  14.44790269 11.62172135  0.71090360
   7.27612670  2.08017985  2.39431439
  19.44822849 20.12984139  3.14055523
   2.39255547 15.91928322  4.31736413
  12.79657724  2.60580340 -0.46014091
  12.30801074  1.97545541  4.40691088
   6.55826040  4.44980297  8.28982775
  16.27227370  4.29770291 -0.47019907
   6.53161950  8.30575180  0.01122000
  22.67823992 22.94274304 -2.05994067
  13.40545740 10.29073530  2.95169887
   7.62447798 18.21466189  1.47462511
  13.36305881 23.18932451  0.10538829
  -6.19914425  4.24542621  9.69476401
  20.40503705 16.03090785  2.54312124
   5.61974563 17.59020514 -0.36779422
  10.69867747 23.22580319  3.69824140
  13.74632731  0.69710337  6.68115417
  17.66334830  3.09384487  1.65259679
  12.61116190 20.55537397  0.78653567
   0.13478868 10.76139235  6.82201864
   4.69928031 15.57027130  5.94752241
  -3.47451312  3.91345770  8.91440247
  -0.80534947  5.01154030  9.25293089
   3.85999300  4.11904599  8.35229478
   2.85435644 17.77878182  6.21023982
   3.51814448  5.75777489  2.62252172
  23.66637019 13.89485317 -2.33459186
   5.44610023  3.98670199  1.44771128
   4.56111625 20.66793111  1.69518502
   6.45268725 13.60968891  5.95946939
  -0.78136574 18.12849626  2.96505086
  10.17132031  2.13344631  3.35399443
   7.57844033 21.78845509  0.48605815
   7.35724896  4.39681550  2.81507702
  -3.46064662 10.79654505  6.39739675
  17.40920618  2.20213492 -0.49329638
  -0.79033938 11.63908076  4.79183695
  12.92206157 14.83435185  6.78567255
   8.40193028  1.43750505  0.54290800
  14.38948625 18.99385516  1.40302551
  -4.51119796  6.18128561  9.55649713
  20.32924913 18.22814184  1.40971907
  25.95323352 13.06878233 -2.16465240
  16.81154006 11.19295548  4.23083360
   1.87187166  1.24636793  3.85293897
  21.06061430 14.31697116  5.84627196
  24.63099709 12.58378033 -0.67764645
   1.97173250 17.17003958  2.30637242
  13.51971274  5.30425199  5.35524816
  -2.45386173  1.31995707  4.13058682
   4.73883122  9.37637952  1.36393961
   1.44840061  5.17972615  3.68720307
  14.02663376 10.06913680  5.30027014
   0.73951601  3.62108110  8.12648540
   8.75996926 17.14779388  7.80990357
  11.11486718  4.65887858  8.47869581
  19.58381456  8.18980613 -1.12903028
  21.07296042  5.86391550  1.42116779
  21.40502676  5.16424036 -1.89210698
   0.51453905 14.35742813  3.52009267
   8.94570322 14.65687717  1.92282356
  14.10847611 22.00281811  2.02687933
  -2.03572373 11.58173274  7.64201351
   9.65644770 10.78585625  8.23339232
   4.27477669 10.98034052  3.87605790
   2.08440769  9.07449712  6.55755041
   9.20804708 15.00901859  7.44671906
   2.97018792 15.45560199  1.88708012
  14.29591840 12.46607049  3.01954518
   1.68103652  0.46542006  5.76260359
  20.03406896 11.17570721  0.66850437
   6.84910329 15.33613527  4.94420699
   5.08892494 18.61871522  1.78657312
  19.93166962 22.49313857  3.41500063
  20.10265993 11.67517235  3.96510995
  -0.15014636  6.03097662  0.78434797
  11.27148455 22.56746112  1.38086986
   9.46968626 16.68279820  2.29077505
  11.85133467  2.17421196  6.75045622
  -3.02240578  8.79299822  6.39675967
  21.72979616  4.57269697  5.01510094
  22.30587699  1.65578784  4.13916276
  -0.97493136  8.68175532  6.18037327
   8.30190482  6.62980922 -0.37135878
  11.23642061  0.58252623 -0.85996281
   6.55932691 13.14972836 -0.01142713
   7.52812524 19.99047726  5.02383967
  10.99939846 21.35066270  7.50837567
  11.93343796 14.48338783  3.65240636
   7.99964443  7.70778671  6.22592541
  14.73835287  2.05789799  5.22866714
  18.11488603  8.99091921  2.54259018
  21.36484147 21.76385656 -0.82571244
   5.38311666 20.32782903  5.45860444
  12.32186785 11.36094813  7.62190897
  -1.72790616  3.27283074  4.48678332
  21.40034731  1.63985649 -1.53324796
  12.41279000 18.28058651  3.96788667
  -1.42308959 15.02720447  4.07375400
  -2.35308454  9.63890486  9.72071730
   5.14246553  1.61272147  1.99350893
  21.66674136  8.51243699 -0.81735414
   5.32365576  6.41784732  1.03960486
   8.01348383 23.32794220  3.17098336
  18.87798054  3.37235843  3.73953208
  18.46763270  4.95143816  6.61849855
   2.43185700 12.42613297  0.17455614
   5.54865035 12.83612356  1.77582150
   3.79196239  7.59619793  4.05334217
  18.77170531 14.67078694  3.44357988
  19.66876563  8.04689853  3.47814840
  23.00031567 21.75650711  3.05129312
  15.53181847  4.01784069  1.94471161
  10.00119495  6.36454809  3.78793190
   9.79664114 23.25845600  5.88637700
  13.15759980  1.80707266  1.88001398
  14.41142981  0.92022406 -1.13913979
  -2.10555102 19.38157249  3.97845949
   2.13106378 19.77913018  5.17236897
   9.46122584  7.09683537  7.64746739
  24.48041712 22.26108490 -0.58101896
  10.04666527 13.73879392  3.49470457
  14.89221306 10.81096788 -1.42061148
   1.33519500 19.60203798  7.02760914
  17.94426507  5.41408498  0.96432813
   0.61383140  9.99327317  9.20518420
  16.76775473 23.01416932  1.00302050
   9.67606007 17.50488318  0.47647411
  20.03982039  9.40042950  6.61832532
  12.87227211 18.16178848  0.40855259
   3.40625287 16.09876913  7.94545263
   2.10837878  4.61873150  6.92203939
  -1.22358674 21.75787395  7.66093889
  15.34787124  6.57415372 -1.28698081
  -3.62295187 18.02947508  9.20312754
  -5.03309174 22.86372200  8.80051617
  11.12462751 10.67523222  3.45096703
  15.55565054  5.37235487  5.04025016
   2.29876239 11.70312692  7.05592385
  19.79539569  2.40425326  2.21843917
   3.39647343 13.91270621  5.02412222
   7.68384548 13.87091749  7.89961533
  10.15921645 17.85946545  6.53058023
  -6.58418541  2.14883631 10.08253693
   7.94281404  9.14514766  1.61156750
  11.28370416 19.43984431  2.69885238
  17.36377542 20.62549119  4.30716052
  15.21582005  9.39199567  1.66321938
  -2.39382714 17.21807811  7.74995148
   5.11528379  5.66783234  6.67420545
   9.15979337  8.15252645  4.64553188
   1.87400515  8.09257191  4.79268800
  18.71599853 22.65807162  0.28941086
   8.52494117  3.25768583  7.55346145
  14.94708843 21.92545353  6.16620763
   8.09498019 20.42497555  1.95165978
  20.09450596 20.54109948  6.80530504
  19.85882656 17.22210829  7.30067316
  15.81471024 15.36929448  5.03305021
   1.13822653  6.68061792  2.31984559
  24.07253017  4.52218482 -0.76260230
  21.53855776 19.29199852  3.75328608
  12.82597584 13.41940026  0.18615634
  21.26622062  6.59721814  5.55646369
  -1.93711262 15.39312672  8.57954129
   9.07073063  5.63209065  2.15449856
  21.61249834 12.22658671 -0.09530319
   2.91962727  4.13420474  0.85507173
  23.69758181 20.45515060  0.17770506
  10.84738795 10.17100268 -0.07391979
  17.11300057  8.26147500  5.92366632
   4.36175715 17.36067990  4.51545825
  17.88906485 23.14334014  7.37925692
   2.52132642 20.59359938  1.26342983
  -1.43259089  2.76047103  9.66394636
   1.31315898 13.98677978 -0.11460413
  -1.01094634 22.58534039  5.81202764
   4.87251679 19.22547831  7.16144494
   2.34182407 11.16838913  3.64261413
   0.19459096  6.99327477  8.27555014
  18.36140988 17.96395055  4.04028495
   0.64884165  0.06691213  2.63000091
   7.35870840  1.63784827  4.77964774
  13.77003954 19.65995882  4.68181042
   0.91451865 16.56905033  5.93827046
  12.54203167  4.31595569  3.85337231
  16.84665638 12.05452754  0.99150789
  14.32426355 16.21089864  6.12404897
   9.23149552  4.38022195  5.92744224
   5.33133754  2.56330687  7.49374012
  18.07928405  9.90803558  6.85663431
  14.85986013 13.98123079  0.31877451
  13.75581968  4.67669692  0.20778708
  12.52271618 20.00338723  7.79569868
  17.36575411  3.60008129  7.64973344
  16.21276979  6.70499186  3.59892736
  16.74077351 18.73957371  7.24670109
  10.72461136  3.77215338  0.12968175
   7.09916440 11.99509931  2.87578642
  10.51367430 20.32081669 -0.46125155
  18.81681642 14.29150191 -0.77470261
   1.29402812 21.46456745  2.66798877
  10.63986842 20.83838431  4.26487078
  12.99846417 22.99179796  4.01977694
   4.59279175  4.22316815  3.82504398
  11.94640368 17.91935347  7.55404883
  13.52299668  8.29198451  4.43717008
  21.50888917 17.07175277  4.35228610
  25.31422988 16.76200167  0.19050501
   2.32023078 21.84259681  7.77660925
   6.41912220 16.15561984  1.28967772
   5.54455392 22.16839598  6.31538701
  21.96175374 14.72071582  1.92023633
  16.55281358  1.17401866  2.88617822
   4.89110389  6.21768293  8.65599072
  17.88885481  0.78865138  6.01135542
  22.70837436  1.95614076  2.01061162
  18.94979316 20.68326062  0.93826836
  -0.10744301  0.97563480  6.61194846
  -3.17219425  1.82153961  7.68783146
  14.07163702 21.17275581 -1.02080491
   5.46793489 16.18656168  8.12469899
   0.81817210 13.10481546  7.45839620
  10.50729582 12.12732639  0.48027505
   7.68526644 18.24745442  4.07527567
  17.44566143 14.98785255  6.32324053
  -2.31097221  5.36921307  7.56269535
  -3.84997950 21.20034626  8.91794602
  22.32660384 15.22023743 -1.16337634
  -1.16352661  3.90324824  2.66350212
   7.25753040 19.01664362 -0.78490746
  24.33705431  8.05461571 -0.18927915
  24.10276950  6.94928740  1.48413402
  18.99784309 16.80230054  0.78183881
  12.75677756  9.68682529  0.60924395
  15.27018922 12.27455712  6.82897507
   5.10111008 15.26616196  3.00466457
 


--------------------------------------------------------------------------------------------------------


 use parallel FFT for orbitals z direction half grid
 k-point   1 :   0.0000 0.0000 0.0000  plane waves:   56003

 maximum and minimum number of plane-waves per node :      9339     9328

 maximum number of plane-waves:     56003
 maximum index in each direction: 
   IXMAX=   34   IYMAX=   38   IZMAX=   20
   IXMIN=  -44   IYMIN=  -38   IZMIN=    0


 real space projection operators:
  total allocation   :     107996.34 KBytes
  max/ min on nodes  :      18037.55      17967.55


 parallel 3D FFT for wavefunctions:
    minimum data exchange during FFTs selected (reduces bandwidth)
 parallel 3D FFT for charge:
    minimum data exchange during FFTs selected (reduces bandwidth)


 total amount of memory used by VASP MPI-rank0   363853. kBytes
=======================================================================

   base      :      30000. kBytes
   nonlr-proj:      22108. kBytes
   fftplans  :     126658. kBytes
   grid      :     104064. kBytes
   one-center:        668. kBytes
   wavefun   :      80355. kBytes
 
     INWAV:  cpu time    0.0000: real time    0.0000
 Broyden mixing: mesh for mixing (old mesh)
   NGX = 89   NGY = 77   NGZ = 41
  (NGX  =360   NGY  =320   NGZ  =168)
  gives a total of 280973 points

 initial charge density was supplied:
 charge density of overlapping atoms calculated
 number of electron    1537.0000000 magnetization     257.0000000
 keeping initial charge density in first step


--------------------------------------------------------------------------------------------------------


 Maximum index for non-local projection operator         1216
 Maximum index for augmentation-charges         8293 (set IRDMAX)


--------------------------------------------------------------------------------------------------------


 First call to EWALD:  gamma=   0.097
 Maximum number of real-space cells 2x 2x 5
 Maximum number of reciprocal cells 4x 3x 2

    FEWALD:  cpu time    0.0308: real time    0.0316


--------------------------------------- Iteration      1(   1)  ---------------------------------------


    POTLOK:  cpu time    2.1788: real time    2.1944
    SETDIJ:  cpu time    2.2853: real time    2.3030
    EDDIAG:  cpu time   21.7221: real time   21.8714
  RMM-DIIS:  cpu time   52.3719: real time   52.7380
    ORTHCH:  cpu time    1.9110: real time    1.9244
       DOS:  cpu time    0.0053: real time    0.0055
    --------------------------------------------
      LOOP:  cpu time   80.4744: real time   81.0368

 eigenvalue-minimisations  :  2104
 total energy-change (2. order) : 0.1918688E+05  (-0.4746775E+05)
 number of electron    1537.0000000 magnetization     257.0000000
 augmentation part     1537.0000000 magnetization     257.0000000

 Free energy of the ion-electron system (eV)
  ---------------------------------------------------
  alpha Z        PSCENC =      2674.94624358
  Ewald energy   TEWEN  =    -49806.14110346
  -Hartree energ DENC   =    -20967.55523621
  -exchange      EXHF   =         0.00000000
  -V(xc)+E(xc)   XCENC  =      -373.75016096
  PAW double counting   =     57971.91619422   -53884.73619297
  entropy T*S    EENTRO =        -0.05505489
  eigenvalues    EBANDS =     15548.00483092
  atomic energy  EATOM  =     68024.25456431
  Solvation  Ediel_sol  =         0.00000000
  ---------------------------------------------------
  free energy    TOTEN  =     19186.88408454 eV

  energy without entropy =    19186.93913944  energy(sigma->0) =    19186.91161199


--------------------------------------------------------------------------------------------------------




--------------------------------------- Iteration      1(   2)  ---------------------------------------


    EDDIAG:  cpu time   21.6887: real time   21.8299
  RMM-DIIS:  cpu time   52.3380: real time   52.6945
    ORTHCH:  cpu time    2.0334: real time    2.0473
       DOS:  cpu time    0.0107: real time    0.0107
    --------------------------------------------
      LOOP:  cpu time   76.0707: real time   76.5824

 eigenvalue-minimisations  :  2104
 total energy-change (2. order) :-0.1365385E+05  (-0.1387076E+05)
 number of electron    1537.0000000 magnetization     257.0000000
 augmentation part     1537.0000000 magnetization     257.0000000

 Free energy of the ion-electron system (eV)
  ---------------------------------------------------
  alpha Z        PSCENC =      2674.94624358
  Ewald energy   TEWEN  =    -49806.14110346
  -Hartree energ DENC   =    -20967.55523621
  -exchange      EXHF   =         0.00000000
  -V(xc)+E(xc)   XCENC  =      -373.75016096
  PAW double counting   =     57971.91619422   -53884.73619297
  entropy T*S    EENTRO =        -0.10989391
  eigenvalues    EBANDS =      1894.20893334
  atomic energy  EATOM  =     68024.25456431
  Solvation  Ediel_sol  =         0.00000000
  ---------------------------------------------------
  free energy    TOTEN  =      5533.03334795 eV

  energy without entropy =     5533.14324186  energy(sigma->0) =     5533.08829490


--------------------------------------------------------------------------------------------------------




[...]
      0.22036      0.19838      0.21392
      0.02149     -0.00979      0.01117
     -0.07899      0.13727      0.00999
     -0.02315      0.00019     -0.03360
     -0.00202      0.00627     -0.05107
      0.00664      0.00801     -0.01249
      0.00597     -0.00410     -0.01476
     -0.01018      0.01342      0.00847
      0.01236      0.00278     -0.00889
     -0.03163     -0.01117     -0.03992
      0.00205     -0.01006     -0.01149
     -0.01505      0.00415     -0.00769
     -0.01003      0.00628     -0.00800
     -0.00658      0.01596     -0.01402
     -0.01207     -0.03052     -0.04720
      0.00716     -0.00012     -0.00144
     -0.00643     -0.02186     -0.02885
      0.00935     -0.01032     -0.02328
      0.02004      0.00354      0.01541
      0.01758     -0.02094     -0.00609
      0.01050     -0.00996     -0.00335
     -0.03558     -0.01808     -0.02177
     -0.06716      0.19376     -0.14489
     -0.00005      0.00806      0.00185
      0.02020      0.03781      0.01745
      0.00764     -0.01407      0.03048
     -0.05680     -0.05094     -0.03505
      0.00341      0.05794      0.02345
     -0.02179      0.02876      0.00217
     -0.01208      0.04230      0.13345
      0.01521      0.02218     -0.01183
     -0.00055     -0.01963     -0.01740
      0.00787     -0.00301     -0.00631
     -0.00245     -0.00463     -0.02119
      0.00504     -0.01294     -0.01151
      0.00497      0.01204     -0.01129
      0.01335      0.02818     -0.03288
      0.00556     -0.01867     -0.00631
      0.00362      0.00659     -0.00484
     -0.00315     -0.01169     -0.01926
      0.01364      0.01382     -0.02304
     -0.02004     -0.00741     -0.00413
     -0.00059      0.00645     -0.01273
     -0.00032      0.00029      0.00808
      0.00582     -0.00895     -0.00733
     -0.00314      0.00080     -0.03136
      0.00876      0.04071      0.02382
     -0.06143      0.06843     -0.00090
     -0.02480     -0.01713     -0.02354
      0.00982      0.02502      0.02438
      0.01393     -0.00273     -0.03578
      0.01705      0.03347     -0.03295
      0.01690     -0.01658     -0.01670
     -0.01432     -0.04609     -0.04269
      0.00114      0.01053     -0.01386
      0.00548     -0.00278     -0.02223
     -0.01835      0.00887     -0.00745
      0.00806      0.00233     -0.00743
     -0.00216     -0.01188     -0.01776
     -0.01822     -0.02306     -0.00200
      0.00908      0.02946     -0.01695
     -0.10317      0.01191      0.22134
      0.02062      0.01640     -0.02222
      0.01312     -0.00731     -0.00423
     -0.00234      0.02388      0.16206
      0.00712      0.03159      0.01545
     -0.02334      0.03972     -0.02876
     -0.00163     -0.02234     -0.01482
      0.00595     -0.00228     -0.00937
     -0.00605     -0.01084     -0.01524
     -0.00199     -0.01836     -0.01865
     -0.00005     -0.01711     -0.02375
     -0.13276     -0.04074      0.01743
     -0.04755     -0.00775     -0.01036
      0.00902     -0.02242     -0.01472
     -0.04821     -0.03807      0.00564
      0.00174      0.00031      0.00220
      0.02515     -0.00439      0.01164
     -0.02732     -0.03347     -0.00313
     -0.00079     -0.01790     -0.00833
      0.00725      0.00470     -0.01633
     -0.00545     -0.02004     -0.01831
     -0.02066     -0.01448     -0.01504
     -0.04324     -0.03446      0.04934
     -0.01007     -0.01595     -0.01248
     -0.06086     -0.02647     -0.04739
      0.00618      0.00814     -0.01091
      0.00463      0.01013     -0.04849
      0.00659     -0.01488     -0.01196
     -0.02295      0.02008      0.04460
      0.02929      0.03950     -0.01689
     -0.00216      0.00742      0.00408
     -0.02045      0.00985     -0.02779
      0.00769     -0.00108     -0.03605
     -0.00778     -0.02436      0.00610
     -0.02670      0.00245     -0.12229
     -0.03817     -0.00487     -0.00324
     -0.00932     -0.01509     -0.01485
     -0.00832      0.01870     -0.00841
     -0.00083      0.01075     -0.01193
      0.00685     -0.03110     -0.01937
     -0.00296      0.02860      0.02302
     -0.00180      0.00316      0.01117
     -0.04335     -0.02091      0.05204
      0.00766     -0.00267     -0.00909
      0.00379     -0.00374     -0.00711
      0.01476      0.00352     -0.01076
     -0.00110     -0.01006     -0.01271
      0.00385     -0.01093     -0.01730
     -0.00798      0.00599     -0.00179
      0.02865     -0.01362     -0.00317
      0.01367      0.06314      0.01822
      0.00354      0.09193      0.07074
      0.03921      0.06540      0.08717
      0.01545      0.00523     -0.00580
     -0.00201      0.02648     -0.02090
      0.00803      0.03820      0.00387
      0.00087     -0.00018     -0.00628
      0.01766      0.01254     -0.00893
     -0.06712     -0.02005      0.06788
      0.00674     -0.00317     -0.01000
      0.00794     -0.01663      0.03546
      0.00718      0.00326     -0.01139
     -0.09948     -0.01954     -0.00473
      0.00503     -0.00286      0.00249
     -0.02868     -0.03381     -0.01172
     -0.02036     -0.00338     -0.03755
     -0.00226      0.02406      0.02238
      0.03835      0.09691     -0.02038
      0.00651      0.00169     -0.01593
     -0.17984     -0.03696      0.24818
      0.00655      0.02416     -0.04240
     -0.03188     -0.01550     -0.02656
      0.01812     -0.04177     -0.02054
      0.00635      0.00291     -0.00825
      0.04010      0.04000      0.06392
      0.03300      0.06194      0.02151
     -0.00347     -0.01222     -0.01733
      0.00267     -0.00735     -0.01052
     -0.03669     -0.01160     -0.06971
     -0.01347     -0.01379     -0.03146
      0.00791     -0.02841      0.01301
      0.01668      0.04433      0.06454
      0.00339     -0.01140     -0.01927
      0.00199     -0.00588     -0.01635
     -0.04764     -0.04495      0.02792
     -0.00390      0.00117     -0.01301
      0.00232     -0.01778     -0.01369
     -0.00930     -0.00685     -0.00545
     -0.00410      0.03549     -0.02548
     -0.03723     -0.00012     -0.04274
     -0.01032      0.07086      0.03924
      0.00915     -0.00633     -0.01191
      0.01652      0.01624     -0.02158
     -0.00871     -0.01362     -0.02088
     -0.00247     -0.00245      0.02353
      0.02951      0.05886      0.00358
      0.01127     -0.01600     -0.01483
      0.00363     -0.01316     -0.01098
      0.00945     -0.00577     -0.01083
     -0.02399     -0.00144      0.01831
     -0.01348      0.01220      0.01525
      0.01754      0.04026      0.03918
     -0.04493     -0.02355     -0.01098
     -0.01750     -0.01170     -0.01354
     -0.03655      0.01064      0.06489
     -0.03131     -0.01377     -0.02528
     -0.03601     -0.02094      0.06437
     -0.00699     -0.02333     -0.01668
      0.01033     -0.00962     -0.00715
     -0.00743      0.03359      0.02876
      0.00075      0.02610     -0.03559
      0.00455     -0.00444      0.01459
      0.00250      0.02668     -0.01723
      0.01595      0.02217     -0.03385
     -0.00889     -0.01807     -0.02826
     -0.05897     -0.02401     -0.03705
      0.00578      0.00348     -0.04931
     -0.00273     -0.00115      0.00202
     -0.00385     -0.01105      0.00650
      0.03111      0.06962      0.11406
      0.01362      0.00099     -0.01359
      0.01700      0.02957     -0.03050
      0.00591     -0.01873      0.09556
      0.00235      0.02767     -0.03027
     -0.02512     -0.03052      0.00100
     -0.00673      0.00906     -0.00044
     -0.00908      0.00019     -0.00738
     -0.08359     -0.03331      0.12544
      0.00374      0.00299      0.00346
      0.02276     -0.01718      0.03798
     -0.10541     -0.09562     -0.03381

 NEB: forces: par spring, perp REAL, dneb     0.080349    0.702250    0.000000
 NEB: distance to prev, next image, angle between     0.116528    0.100459  176.819945
 NEB: projections on to tangent (spring, REAL)    -0.080349   -0.054781

 stress matrix after NEB project (eV)
     50.33782      2.20164      0.12292
      2.20164     51.44424      3.19308
      0.12292      3.19308     55.84445
  FORCES: max atom, RMS     0.232341    0.044091
  FORCE total and by dimension    0.706831    0.228500
  Stress total and by dimension   91.264039   55.844446


--------------------------------------------------------------------------------------------------------


    WAVPRE:  cpu time    7.4178: real time    7.4603
    FEWALD:  cpu time    0.0431: real time    0.0433

 real space projection operators:
  total allocation   :     108000.85 KBytes
  max/ min on nodes  :      18038.09      17974.18

    ORTHCH:  cpu time   14.9610: real time   15.0653
     LOOP+:  cpu time 3615.4033: real time 3640.1853


--------------------------------------- Iteration      8(   1)  ---------------------------------------


    POTLOK:  cpu time    2.1985: real time    2.2109
    SETDIJ:  cpu time    2.2306: real time    2.2424
    EDDIAG:  cpu time   21.6386: real time   21.7707
  RMM-DIIS:  cpu time   52.4496: real time   52.8084
    ORTHCH:  cpu time    2.0025: real time    2.0163
       DOS:  cpu time    0.0025: real time    0.0025
    --------------------------------------------
      LOOP:  cpu time   80.5225: real time   81.0513

 eigenvalue-minimisations  :  2104
 total energy-change (2. order) : 0.2265514E-02  (-0.1250096E+00)
 number of electron    1536.9999993 magnetization      -1.7588550
 augmentation part     -120.0551032 magnetization      -0.2843536

  free energy =  -0.143695364024E+04  energy without entropy=  -0.143690003668E+04


--------------------------------------------------------------------------------------------------------




--------------------------------------- Iteration      8(   2)  ---------------------------------------


    EDDIAG:  cpu time   21.6676: real time   21.8022
  RMM-DIIS:  cpu time   52.3965: real time   52.7519
    ORTHCH:  cpu time    1.9342: real time    1.9465
       DOS:  cpu time    0.0052: real time    0.0052
    --------------------------------------------
      LOOP:  cpu time   76.0034: real time   76.5057

 eigenvalue-minimisations  :  2104
 total energy-change (2. order) :-0.1089697E-01  (-0.1185078E-01)
 number of electron    1536.9999993 magnetization      -1.7588550
 augmentation part     -120.0551032 magnetization      -0.2843536

  free energy =  -0.143696453721E+04  energy without entropy=  -0.143691093464E+04


--------------------------------------------------------------------------------------------------------




--------------------------------------- Iteration      8(   3)  ---------------------------------------


    EDDIAG:  cpu time   21.5692: real time   21.7106
  RMM-DIIS:  cpu time   52.4044: real time   52.7630
    ORTHCH:  cpu time    1.8338: real time    1.8450
       DOS:  cpu time    0.0030: real time    0.0031
    --------------------------------------------
      LOOP:  cpu time   75.8104: real time   76.3217

 eigenvalue-minimisations  :  2104
 total energy-change (2. order) :-0.2469444E-02  (-0.2466991E-02)
 number of electron    1536.9999993 magnetization      -1.7588550
 augmentation part     -120.0551032 magnetization      -0.2843536

  free energy =  -0.143696700666E+04  energy without entropy=  -0.143691340451E+04


--------------------------------------------------------------------------------------------------------




--------------------------------------- Iteration      8(   4)  ---------------------------------------


    EDDIAG:  cpu time   21.5642: real time   21.7102
  RMM-DIIS:  cpu time   52.4379: real time   52.7923
    ORTHCH:  cpu time    1.8142: real time    1.8261
       DOS:  cpu time    0.0027: real time    0.0027
    --------------------------------------------
      LOOP:  cpu time   75.8191: real time   76.3314

 eigenvalue-minimisations  :  2104
 total energy-change (2. order) :-0.6609561E-03  (-0.6663135E-03)
 number of electron    1536.9999993 magnetization      -1.7588550
 augmentation part     -120.0551032 magnetization      -0.2843536

  free energy =  -0.143696766761E+04  energy without entropy=  -0.143691406559E+04


--------------------------------------------------------------------------------------------------------




--------------------------------------- Iteration      8(   5)  ---------------------------------------


    EDDIAG:  cpu time   21.5929: real time   21.7340
  RMM-DIIS:  cpu time   52.4685: real time   52.8237
    ORTHCH:  cpu time    1.8299: real time    1.8414
       DOS:  cpu time    0.0028: real time    0.0028
    --------------------------------------------
      LOOP:  cpu time   75.8940: real time   76.4018

 eigenvalue-minimisations  :  2104
 total energy-change (2. order) :-0.2033986E-03  (-0.2035294E-03)
 number of electron    1536.9999993 magnetization      -1.7588550
 augmentation part     -120.0551032 magnetization      -0.2843536

  free energy =  -0.143696787101E+04  energy without entropy=  -0.143691426903E+04


--------------------------------------------------------------------------------------------------------




--------------------------------------- Iteration      8(   6)  ---------------------------------------


    EDDIAG:  cpu time   21.5770: real time   21.7074
  RMM-DIIS:  cpu time   52.4466: real time   52.8014
    ORTHCH:  cpu time    1.8428: real time    1.8541
       DOS:  cpu time    0.0023: real time    0.0023
    --------------------------------------------
      LOOP:  cpu time   75.8687: real time   76.3651

 eigenvalue-minimisations  :  2104
 total energy-change (2. order) :-0.6754485E-04  (-0.6782372E-04)
 number of electron    1536.9999993 magnetization      -1.7588550
 augmentation part     -120.0551032 magnetization      -0.2843536

  free energy =  -0.143696793856E+04  energy without entropy=  -0.143691433659E+04


--------------------------------------------------------------------------------------------------------




--------------------------------------- Iteration      8(   7)  ---------------------------------------


    EDDIAG:  cpu time   21.6065: real time   21.7393
  RMM-DIIS:  cpu time   52.4137: real time   52.7731
    ORTHCH:  cpu time    1.8344: real time    1.8453
       DOS:  cpu time    0.0034: real time    0.0034
    --------------------------------------------
      LOOP:  cpu time   75.8580: real time   76.3612

 eigenvalue-minimisations  :  2104
 total energy-change (2. order) :-0.2430141E-04  (-0.2433487E-04)
 number of electron    1536.9999993 magnetization      -1.7588550
 augmentation part     -120.0551032 magnetization      -0.2843536

  free energy =  -0.143696796286E+04  energy without entropy=  -0.143691436090E+04


--------------------------------------------------------------------------------------------------------




--------------------------------------- Iteration      8(   8)  ---------------------------------------


    EDDIAG:  cpu time   21.5413: real time   21.6729
  RMM-DIIS:  cpu time   92.4384: real time   93.0760
    ORTHCH:  cpu time    1.8251: real time    1.8360
       DOS:  cpu time    0.0023: real time    0.0023
    --------------------------------------------
      LOOP:  cpu time  115.8069: real time  116.5871

 eigenvalue-minimisations  :  4387
 total energy-change (2. order) :-0.1217733E-04  (-0.1220918E-04)
 number of electron    1536.9999993 magnetization      -1.7588550
 augmentation part     -120.0551032 magnetization      -0.2843536

  free energy =  -0.143696797504E+04  energy without entropy=  -0.143691437309E+04


--------------------------------------------------------------------------------------------------------




--------------------------------------- Iteration      8(   9)  ---------------------------------------


    EDDIAG:  cpu time   21.6106: real time   21.7422
  RMM-DIIS:  cpu time   90.0198: real time   90.6474
    ORTHCH:  cpu time    1.8256: real time    1.8373
       DOS:  cpu time    0.0029: real time    0.0029
    --------------------------------------------
      LOOP:  cpu time  113.4590: real time  114.2299

 eigenvalue-minimisations  :  4336
 total energy-change (2. order) :-0.3781330E-05  (-0.3855914E-05)
 number of electron    1536.9999993 magnetization      -1.7588550
 augmentation part     -120.0551032 magnetization      -0.2843536

  free energy =  -0.143696797882E+04  energy without entropy=  -0.143691437687E+04


--------------------------------------------------------------------------------------------------------




--------------------------------------- Iteration      8(  10)  ---------------------------------------


    EDDIAG:  cpu time   21.5439: real time   21.6845
  RMM-DIIS:  cpu time   67.6350: real time   68.0891
    ORTHCH:  cpu time    1.8059: real time    1.8161
       DOS:  cpu time    0.0047: real time    0.0048
    CHARGE:  cpu time   12.9772: real time   13.0554
    MIXING:  cpu time    0.1120: real time    0.1124
    --------------------------------------------
      LOOP:  cpu time  104.0788: real time  104.7625

 eigenvalue-minimisations  :  3011
 total energy-change (2. order) :-0.2562883E-06  (-0.2864625E-06)
 number of electron    1536.9999993 magnetization      -1.7609291
 augmentation part     -120.0554146 magnetization      -0.2841817

  free energy =  -0.143696797907E+04  energy without entropy=  -0.143691437713E+04


--------------------------------------------------------------------------------------------------------




--------------------------------------- Iteration      8(  11)  ---------------------------------------


    POTLOK:  cpu time    2.1302: real time    2.1410
    SETDIJ:  cpu time    2.1903: real time    2.2058
    EDDIAG:  cpu time   21.8763: real time   22.0160
  RMM-DIIS:  cpu time  144.8607: real time  145.8520
    ORTHCH:  cpu time    1.9141: real time    1.9273
       DOS:  cpu time    0.0041: real time    0.0041
    CHARGE:  cpu time   12.8395: real time   12.9237
    MIXING:  cpu time    0.1868: real time    0.1876
    --------------------------------------------
      LOOP:  cpu time  186.0019: real time  187.2575

 eigenvalue-minimisations  :  6742
 total energy-change (2. order) :-0.1156816E-02  (-0.1500636E-03)
 number of electron    1536.9999993 magnetization      -1.7668738
 augmentation part     -120.0585431 magnetization      -0.2577212

 eigenvalues of (default mixing * dielectric matrix)
  average eigenvalue GAMMA=   0.2620
  0.2620

  free energy =  -0.143696913589E+04  energy without entropy=  -0.143691561979E+04


--------------------------------------------------------------------------------------------------------




--------------------------------------- Iteration      8(  12)  ---------------------------------------


    POTLOK:  cpu time    2.1377: real time    2.1493
    SETDIJ:  cpu time    2.2220: real time    2.2381
    EDDIAG:  cpu time   21.6952: real time   21.8329
  RMM-DIIS:  cpu time  139.8027: real time  140.7664
    ORTHCH:  cpu time    1.8242: real time    1.8353
       DOS:  cpu time    0.0035: real time    0.0035
    CHARGE:  cpu time   12.9737: real time   13.0567
    MIXING:  cpu time    0.1108: real time    0.1112
    --------------------------------------------
      LOOP:  cpu time  180.7697: real time  181.9934

 eigenvalue-minimisations  :  6532
 total energy-change (2. order) : 0.6910135E-03  (-0.1441104E-03)
 number of electron    1536.9999993 magnetization      -1.7627905
 augmentation part     -120.0539709 magnetization      -0.3105920

 eigenvalues of (default mixing * dielectric matrix)
  average eigenvalue GAMMA=   0.6118
  1.1124  0.1111

  free energy =  -0.143696844488E+04  energy without entropy=  -0.143691450185E+04


--------------------------------------------------------------------------------------------------------




--------------------------------------- Iteration      8(  13)  ---------------------------------------


    POTLOK:  cpu time    2.0985: real time    2.1108
    SETDIJ:  cpu time    2.1735: real time    2.1903
    EDDIAG:  cpu time   21.8607: real time   22.0031
