LiMox                                   
           1
    27.120398    0.402360   -2.402807
     0.301745   23.362465   -0.437691
    -7.129578   -0.289405   10.364511
   Mo   S    Li
    48   208     1
Direct configuration=     1
   0.53651126  0.08776685  0.67297435
   0.86421184  0.42266650  0.65649279
   0.76119459  0.56176248  0.01219225
   0.89739291  0.79669941  0.83909760
   0.27892124  0.46154056  0.16338711
   0.53499765  0.53155582  0.37610281
   0.64536243  0.91299101  0.73976890
   0.06061836  0.97702569  0.73832559
   0.76244932  0.24573412  0.13652683
   0.97319719  0.90762803  0.73461054
   0.36545763  0.96398481  0.08378679
   0.70335861  0.50714731  0.11678674
   0.90723311  0.68337860  0.73751510
   0.87672130  0.26379527  0.18960294
   0.18461175  0.54154038  0.55483725
   0.41756021  0.91958614  0.96086670
   0.88413026  0.93305687  0.76541488
   0.62655993  0.07091718  0.22991084
   0.72788886  0.38464159  0.56696920
   0.58649530  0.49014216  0.22525613
   0.35037057  0.08691849  0.31590788
   0.84845230  0.85365601  0.53575709
   0.21054033  0.68390072  0.49424323
   0.49003483  0.10401015  0.07360140
   0.60231161  0.08122283  0.56825643
   0.48141933  0.19356858  0.91961008
   0.62623683  0.17449997  0.10718348
   0.25676222  0.35202978  0.07547394
   0.83481138  0.96809863  0.03566771
   0.60608876  0.43553948  0.44369147
   0.33918983  0.77695627  0.25372156
   0.52753018  0.98566010  0.17408988
   0.01843905  0.19314353  0.94781189
   0.86988981  0.67709242  0.47562843
   0.21070927  0.74985476  0.04502909
   0.51995503  0.99162752  0.51923528
   0.72021724  0.02750267  0.81274793
   0.73819677  0.12387436  0.33581516
   0.51640730  0.87383249  0.23250800
   0.18954454  0.46630493  0.72184353
   0.34514671  0.66897058  0.68210126
   0.10434619  0.17675997  0.89174420
   0.21829519  0.22255529  0.95275721
   0.37715765  0.18097525  0.90093427
   0.27979811  0.76480493  0.69634633
   0.20897068  0.24671870  0.31189359
   0.86620270  0.57983358  0.00004962
   0.25294329  0.16883432  0.20544940
   0.22485949  0.88392556  0.25301392
   0.41432029  0.58402755  0.69570334
   0.04938548  0.77920948  0.33043217
   0.48997337  0.08834284  0.44092507
   0.31067676  0.92923516  0.15816208
   0.36491818  0.18642525  0.36407909
   0.03689819  0.46949433  0.64562135
   0.67025773  0.08409528  0.11134258
   0.09838220  0.50277409  0.50637124
   0.69065917  0.63349535  0.84157069
   0.34456990  0.05726456  0.13468143
   0.60288765  0.80645423  0.30919223
   0.08098063  0.27498552  0.95242667
   0.83629809  0.77031837  0.36242363
   0.96058895  0.54330419  0.03678486
   0.77437955  0.47329132  0.60771548
   0.17756750  0.05543496  0.41524996
   0.98485212  0.60599052  0.81797572
   0.94883529  0.52448040  0.17673600
   0.13969778  0.73607813  0.28599654
   0.67550095  0.22386540  0.68274620
   0.01521391  0.06124962  0.40464536
   0.22290319  0.39998436  0.20016407
   0.15645868  0.22399027  0.40148365
   0.69391526  0.42759672  0.69031428
   0.24853143  0.16122617  0.84849403
   0.55489389  0.73574521  0.91323516
   0.66543869  0.20010614  0.98076998
   0.73846722  0.33878432  0.07657350
   0.86582345  0.24039646  0.34799460
   0.78937088  0.20756774  0.00920926
   0.11526605  0.61742712  0.39242539
   0.40317852  0.62420741  0.30534908
   0.60870064  0.93597895  0.37620100
   0.12646520  0.50332318  0.78789874
   0.60154033  0.46312485  0.95339601
   0.27253277  0.47096722  0.45704422
   0.25895619  0.39274889  0.70931228
   0.56268068  0.64360368  0.87610809
   0.16757956  0.66175371  0.24886706
   0.64288343  0.52825344  0.46268290
   0.22165550  0.02364060  0.60837856
   0.80469517  0.46785746  0.27080957
   0.40246148  0.65692072  0.59807672
   0.24805495  0.79594186  0.26349320
   0.87484513  0.95481606  0.57262705
   0.89642981  0.49187261  0.61115726
   0.01528305  0.25900174  0.09015698
   0.47985479  0.96123790  0.28506833
   0.43368925  0.71097164  0.35158752
   0.64767929  0.09188587  0.80533681
   0.05409105  0.38344261  0.64591176
   0.98868879  0.18763218  0.72100404
   0.98765300  0.06167973  0.63093174
   0.12864200  0.37734933  0.64205998
   0.31594202  0.27894847  0.04919501
   0.41797722  0.01791757  0.01468455
   0.25723306  0.55944459  0.08215712
   0.43126943  0.85592965  0.62084259
   0.63467757  0.91423159  0.91017653
   0.56721049  0.61649060  0.50992626
   0.48226622  0.33061511  0.72646220
   0.71993633  0.08404732  0.67493025
   0.77995900  0.37688773  0.44205092
   0.81657796  0.91934923  0.14846412
   0.35878692  0.87193774  0.64666242
   0.68968293  0.48575701  0.91578808
   0.05333779  0.14476215  0.45137729
   0.79888392  0.05692464  0.03967687
   0.59454951  0.77909455  0.55356952
   0.05413750  0.64765081  0.43294924
   0.17015216  0.42197793  0.99515126
   0.25576562  0.06777813  0.25449635
   0.82867281  0.35167887  0.12810190
   0.23710969  0.27269012  0.16678913
   0.40027765  0.99708958  0.44084963
   0.84225832  0.13680348  0.56183972
   0.90390539  0.20698691  0.85686678
   0.10018942  0.53093308  0.06248986
   0.26582243  0.54802802  0.25610554
   0.25836700  0.32645297  0.46476229
   0.83007901  0.62049214  0.55088789
   0.86624379  0.33633887  0.55060752
   0.98551460  0.92124506  0.56177426
   0.66238985  0.16488327  0.34815676
   0.49500930  0.26999106  0.49163115
   0.54363788  0.99530249  0.73599895
   0.56741953  0.07149092  0.31595360
   0.53510510  0.03036426  0.01542810
   0.02476141  0.83443927  0.42483270
   0.22336222  0.85004127  0.58672532
   0.57805299  0.30477503  0.88473200
   0.94552179  0.93908479  0.20279941
   0.48886636  0.58553884  0.47524108
   0.54636973  0.45344797  0.00874907
   0.24222247  0.84440484  0.76985896
   0.73063430  0.22252675  0.27182174
   0.27272507  0.43506489  0.96974320
   0.68546327  0.97696466  0.29694266
   0.39278713  0.74459604  0.16847578
   0.96562875  0.39663344  0.87916814
   0.51645324  0.77087189  0.19170167
   0.34833899  0.69394741  0.87666256
   0.26974732  0.20220672  0.73893445
   0.15885413  0.93868527  0.81561871
   0.56787558  0.27185273  0.01895914
   0.10630040  0.78161122  0.94559708
   0.04005030  0.98911297  0.90015588
   0.53001534  0.45369530  0.47499299
   0.74693519  0.22537964  0.66897879
   0.28083120  0.50560475  0.76723406
   0.83719732  0.09359702  0.41208209
   0.26905176  0.59797188  0.57236939
   0.51506596  0.59608849  0.90675983
   0.57528072  0.76440077  0.79573850
   0.01379631  0.10388512  0.98037972
   0.35539847  0.38847533  0.25428636
   0.51593705  0.82835224  0.41498457
   0.79811452  0.87700057  0.63763078
   0.64237281  0.39498820  0.32607425
   0.11531316  0.74499510  0.80593331
   0.38112026  0.24524015  0.74265958
   0.48513303  0.34773055  0.57536835
   0.20302643  0.34938945  0.52423564
   0.74268804  0.96003939  0.24064308
   0.53875431  0.14081105  0.85962723
   0.75343343  0.93553753  0.80911096
   0.37054674  0.87173561  0.31101933
   0.97281393  0.87386537  0.91902768
   0.97694351  0.73225898  0.96179968
   0.75690171  0.65335791  0.68866810
   0.10734523  0.28733769  0.26084595
   0.92462104  0.17947974  0.14835629
   0.94708140  0.81709104  0.61619633
   0.50863372  0.56762020  0.15984811
   0.98510623  0.27503335  0.77609678
   0.15565578  0.66725234  0.89204427
   0.41435547  0.23782751  0.31397621
   0.84604151  0.51135550  0.20853730
   0.13773216  0.17609682  0.12186697
   0.93527853  0.86279803  0.27040717
   0.42392206  0.42940928  0.10927981
   0.83194360  0.34894524  0.77913918
   0.29321131  0.74468001  0.53508829
   0.90171544  0.98701640  0.96269990
   0.13310406  0.88154336  0.18998457
   0.20477025  0.12683645  0.98523558
   0.04845098  0.59816659  0.02543551
   0.11726324  0.97250863  0.62901638
   0.38473314  0.82639210  0.81504946
   0.19032851  0.47992176  0.41584156
   0.23115708  0.30607181  0.86496517
   0.83008192  0.76223902  0.61444646
   0.09651394  0.00462483  0.27632076
   0.41804199  0.06985594  0.56101994
   0.66712450  0.83797938  0.64176286
   0.19628448  0.71387072  0.64859396
   0.59654681  0.18087818  0.51772129
   0.68826267  0.50755192  0.27665766
   0.72784546  0.69112238  0.78878969
   0.52257731  0.18717274  0.70095141
   0.41174301  0.11282574  0.82323826
   0.89508317  0.41967011  0.88677917
   0.59207697  0.59064170  0.19296038
   0.54573868  0.19269737  0.15470424
   0.70225382  0.85590634  0.95110149
   0.88849473  0.15056800  0.95040829
   0.73380554  0.28091624  0.52921697
   0.85305157  0.79896044  0.93068718
   0.42460761  0.15560511  0.11752015
   0.35641561  0.51202483  0.38171537
   0.40034533  0.86396163  0.08479412
   0.71791416  0.60081501  0.11706082
   0.12284979  0.92067037  0.32477582
   0.53295329  0.88987462  0.57262182
   0.61894271  0.98056920  0.57273937
   0.28364949  0.18136322  0.44246951
   0.67309984  0.76678492  0.91726402
   0.65082911  0.35107474  0.59381954
   0.96209802  0.72250725  0.67347675
   0.99910716  0.70373368  0.27972230
   0.30112869  0.94040913  0.85983529
   0.28686756  0.68930560  0.22004591
   0.38826567  0.95136335  0.73951564
   0.91419256  0.61960103  0.42337344
   0.72791228  0.04327849  0.44904710
   0.42584546  0.27051580  0.94530438
   0.86478488  0.02854663  0.78168292
   0.94596443  0.07259588  0.41635888
   0.76939611  0.87585836  0.30588364
   0.17437004  0.04718571  0.68035808
   0.08308937  0.08600971  0.76464050
   0.52493654  0.89798883  0.06112766
   0.43413370  0.69668971  0.91396242
   0.23356411  0.56679356  0.79769189
   0.42553483  0.51383057  0.16668923
   0.41182074  0.78042771  0.52162499
   0.85579082  0.63714521  0.83539047
   0.11352192  0.23735615  0.76601350
   0.08967966  0.91730490  0.91995902
   0.84522914  0.63829634  0.11065867
   0.02625067  0.16996908  0.27024636
   0.26375010  0.80968320  0.01960772
   0.95048938  0.33107416  0.21607114
   0.98649046  0.28522145  0.38393699
   0.76706196  0.70949841  0.28322436
   0.51734844  0.40814936  0.19595482
   0.78403245  0.52258042  0.86271148
   0.28143803  0.65334236  0.38273568
Direct configuration=     2
   0.53646739  0.08774933  0.67287232
   0.86423065  0.42264413  0.65653194
   0.76118398  0.56176755  0.01220855
   0.89727573  0.79685932  0.83851576
   0.27892017  0.46154983  0.16347876
   0.53493827  0.53153705  0.37594262
   0.64536072  0.91296832  0.73977021
   0.06062705  0.97702062  0.73833183
   0.76247506  0.24579291  0.13654382
   0.97318311  0.90763049  0.73459897
   0.36550661  0.96395456  0.08387061
   0.70334892  0.50713891  0.11668925
   0.90727897  0.68352904  0.73776625
   0.87668260  0.26383278  0.18958182
   0.18462051  0.54154012  0.55479663
   0.41756977  0.91958613  0.96084120
   0.88417612  0.93294573  0.76550369
   0.62655268  0.07092646  0.22988658
   0.72791369  0.38463926  0.56700613
   0.58647427  0.49014866  0.22519880
   0.35035409  0.08689294  0.31593331
   0.84852346  0.85363494  0.53602788
   0.21054281  0.68387552  0.49430185
   0.49004637  0.10406387  0.07353119
   0.60235426  0.08125129  0.56839397
   0.48138954  0.19360429  0.91959335
   0.62624309  0.17452849  0.10718096
   0.25679066  0.35204844  0.07554291
   0.83483600  0.96807248  0.03571570
   0.60609003  0.43553199  0.44369227
   0.33916152  0.77695931  0.25369010
   0.52753575  0.98562274  0.17405528
   0.01842076  0.19316835  0.94781388
   0.86986829  0.67715078  0.47569164
   0.21069149  0.74985674  0.04498769
   0.51996065  0.99165580  0.51934759
   0.72021968  0.02749590  0.81273848
   0.73821298  0.12385710  0.33582761
   0.51641568  0.87383041  0.23247622
   0.18945585  0.46629843  0.72170292
   0.34516696  0.66897015  0.68215938
   0.10431575  0.17679328  0.89177792
   0.21827790  0.22258065  0.95268453
   0.37717495  0.18100719  0.90094434
   0.27981850  0.76480084  0.69634754
   0.20891373  0.24674762  0.31194858
   0.86617082  0.57983613  0.00008929
   0.25293604  0.16882164  0.20548590
   0.22484098  0.88393789  0.25296149
   0.41433794  0.58403188  0.69573975
   0.04935814  0.77920142  0.33043753
   0.48994976  0.08834662  0.44096129
   0.31065841  0.92922344  0.15812804
   0.36492999  0.18641684  0.36413942
   0.03693625  0.46947670  0.64564752
   0.67028137  0.08410035  0.11144629
   0.09839638  0.50277385  0.50641949
   0.69068625  0.63350087  0.84160050
   0.34455872  0.05726025  0.13471962
   0.60286556  0.80645000  0.30920994
   0.08097419  0.27495733  0.95246854
   0.83629449  0.77030905  0.36246778
   0.96059201  0.54330602  0.03673530
   0.77437468  0.47324450  0.60772222
   0.17755809  0.05540299  0.41525740
   0.98483009  0.60595987  0.81792780
   0.94882139  0.52446956  0.17675202
   0.13968600  0.73609578  0.28601852
   0.67551057  0.22386645  0.68272973
   0.01524155  0.06124495  0.40467527
   0.22293487  0.40001241  0.20025740
   0.15648963  0.22400114  0.40147708
   0.69391181  0.42760143  0.69029093
   0.24854603  0.16125894  0.84847292
   0.55491387  0.73572039  0.91326810
   0.66542531  0.20013504  0.98077706
   0.73848988  0.33874285  0.07658819
   0.86579685  0.24043063  0.34789808
   0.78939244  0.20759804  0.00925237
   0.11527829  0.61743669  0.39243879
   0.40319760  0.62419384  0.30534506
   0.60868961  0.93594944  0.37611209
   0.12647221  0.50330492  0.78786051
   0.60154070  0.46313102  0.95342122
   0.27253237  0.47096813  0.45702143
   0.25894942  0.39276796  0.70929445
   0.56266208  0.64362214  0.87608162
   0.16758242  0.66172959  0.24888009
   0.64285930  0.52823711  0.46260576
   0.22160911  0.02362747  0.60829360
   0.80466448  0.46786279  0.27071822
   0.40248555  0.65691460  0.59815307
   0.24803996  0.79594236  0.26342843
   0.87483088  0.95479596  0.57261136
   0.89643223  0.49183899  0.61117610
   0.01527168  0.25899271  0.09016240
   0.47985637  0.96121633  0.28502743
   0.43370641  0.71096154  0.35162366
   0.64766237  0.09189119  0.80528021
   0.05410345  0.38347728  0.64586998
   0.98870230  0.18761396  0.72105370
   0.98765442  0.06166743  0.63090751
   0.12863838  0.37738112  0.64204554
   0.31594842  0.27895080  0.04920031
   0.41796959  0.01792249  0.01464059
   0.25722565  0.55943484  0.08213058
   0.43126982  0.85593641  0.62086198
   0.63468759  0.91418985  0.91020909
   0.56719278  0.61649112  0.50990763
   0.48227035  0.33061252  0.72644612
   0.71992645  0.08407493  0.67495659
   0.77997647  0.37690754  0.44215947
   0.81657765  0.91934930  0.14844718
   0.35877052  0.87192279  0.64667385
   0.68971855  0.48576707  0.91588743
   0.05332201  0.14475945  0.45133254
   0.79889017  0.05690433  0.03964664
   0.59457813  0.77910005  0.55361974
   0.05415377  0.64765400  0.43296721
   0.17014020  0.42201916  0.99511036
   0.25580245  0.06779910  0.25455764
   0.82867019  0.35159473  0.12817886
   0.23710026  0.27266971  0.16674374
   0.40027960  0.99711723  0.44082913
   0.84225528  0.13680031  0.56184219
   0.90393215  0.20698493  0.85688060
   0.10018722  0.53093580  0.06247771
   0.26580250  0.54801502  0.25609223
   0.25835460  0.32647669  0.46479181
   0.83008206  0.62048651  0.55081481
   0.86627139  0.33635203  0.55068371
   0.98554885  0.92125124  0.56182558
   0.66241801  0.16488546  0.34821062
   0.49500915  0.27000116  0.49167395
   0.54363652  0.99529071  0.73595156
   0.56742733  0.07149588  0.31596109
   0.53509702  0.03036302  0.01545529
   0.02474098  0.83443857  0.42477832
   0.22337647  0.85003316  0.58673535
   0.57804234  0.30478130  0.88466911
   0.94551702  0.93908078  0.20283713
   0.48886162  0.58552553  0.47520107
   0.54639112  0.45347628  0.00880799
   0.24220947  0.84439561  0.76984198
   0.73064068  0.22251483  0.27181135
   0.27271982  0.43506512  0.96970031
   0.68543965  0.97697542  0.29684828
   0.39279912  0.74458075  0.16850852
   0.96559737  0.39662470  0.87909191
   0.51647111  0.77086496  0.19172925
   0.34831499  0.69395046  0.87658934
   0.26974791  0.20223110  0.73894393
   0.15885936  0.93868976  0.81558291
   0.56784545  0.27183801  0.01887364
   0.10633324  0.78160463  0.94563178
   0.04002557  0.98910562  0.90011066
   0.53001487  0.45369031  0.47495993
   0.74693810  0.22538896  0.66900145
   0.28080935  0.50558525  0.76715859
   0.83720102  0.09358913  0.41210875
   0.26904200  0.59795674  0.57231708
   0.51505091  0.59610299  0.90675715
   0.57528967  0.76440435  0.79576437
   0.01378172  0.10392074  0.98036775
   0.35539786  0.38847956  0.25429194
   0.51593837  0.82832869  0.41494474
   0.79822173  0.87689497  0.63783752
   0.64238356  0.39500681  0.32612912
   0.11531528  0.74498095  0.80594847
   0.38110543  0.24524313  0.74265092
   0.48513056  0.34773824  0.57535920
   0.20299776  0.34936972  0.52414082
   0.74269227  0.96003500  0.24065926
   0.53875512  0.14080037  0.85965376
   0.75345187  0.93553052  0.80918960
   0.37054269  0.87171684  0.31102112
   0.97280770  0.87386654  0.91898155
   0.97693671  0.73225443  0.96177953
   0.75692413  0.65335028  0.68874076
   0.10735896  0.28733174  0.26083438
   0.92465733  0.17952113  0.14842020
   0.94704529  0.81706382  0.61617707
   0.50864972  0.56760508  0.15986501
   0.98512476  0.27502766  0.77617029
   0.15566702  0.66726134  0.89208320
   0.41437951  0.23786096  0.31400486
   0.84601233  0.51140331  0.20842322
   0.13773099  0.17609234  0.12190179
   0.93526770  0.86280757  0.27036166
   0.42393981  0.42942344  0.10933448
   0.83193275  0.34896359  0.77903157
   0.29320790  0.74468093  0.53510465
   0.90170225  0.98700395  0.96274061
   0.13309674  0.88155436  0.18996670
   0.20478511  0.12683483  0.98529507
   0.04842889  0.59817494  0.02542416
   0.11724242  0.97252867  0.62897805
   0.38470701  0.82638575  0.81500441
   0.19033480  0.47991959  0.41593200
   0.23115412  0.30606281  0.86491416
   0.83008008  0.76217340  0.61437213
   0.09654299  0.00461149  0.27637607
   0.41807005  0.06986361  0.56101886
   0.66710167  0.83797117  0.64173473
   0.19627562  0.71387876  0.64853845
   0.59656185  0.18088307  0.51774853
   0.68824147  0.50754981  0.27660168
   0.72785998  0.69112267  0.78883943
   0.52257698  0.18720074  0.70097240
   0.41174592  0.11284481  0.82326648
   0.89508199  0.41968993  0.88676465
   0.59207302  0.59063048  0.19296067
   0.54569768  0.19268605  0.15462163
   0.70223984  0.85589151  0.95108762
   0.88853289  0.15057378  0.95042634
   0.73379275  0.28093715  0.52923371
   0.85306378  0.79895059  0.93069096
   0.42460891  0.15561484  0.11747025
   0.35641120  0.51201111  0.38170609
   0.40033695  0.86395557  0.08480303
   0.71791571  0.60079455  0.11702954
   0.12288747  0.92069696  0.32482188
   0.53296436  0.88985954  0.57267831
   0.61895086  0.98057872  0.57280111
   0.28363182  0.18135776  0.44240667
   0.67307498  0.76676663  0.91721029
   0.65082733  0.35105727  0.59377100
   0.96209760  0.72248110  0.67349085
   0.99911873  0.70374019  0.27976137
   0.30110753  0.94041241  0.85977845
   0.28687848  0.68929878  0.22000373
   0.38826859  0.95133601  0.73953594
   0.91420232  0.61960698  0.42338600
   0.72794728  0.04330439  0.44903583
   0.42585584  0.27049837  0.94530414
   0.86478231  0.02857771  0.78165370
   0.94598996  0.07260440  0.41639818
   0.76939509  0.87585456  0.30585866
   0.17434014  0.04718057  0.68028404
   0.08307811  0.08598988  0.76454778
   0.52493220  0.89796634  0.06115399
   0.43414162  0.69669020  0.91391426
   0.23353034  0.56676457  0.79766721
   0.42556976  0.51382925  0.16676161
   0.41180234  0.78043307  0.52158629
   0.85580169  0.63715700  0.83541076
   0.11350735  0.23734212  0.76600171
   0.08969085  0.91729701  0.91998537
   0.84521233  0.63825962  0.11059337
   0.02624146  0.16998392  0.27023138
   0.26375437  0.80967101  0.01968043
   0.95048390  0.33106822  0.21605168
   0.98647958  0.28520188  0.38391326
   0.76706553  0.70948962  0.28325575
   0.51734120  0.40820643  0.19597435
   0.78405220  0.52261126  0.86278763
   0.28142929  0.65334090  0.38278883
Direct configuration=     3
   0.53636424  0.08770814  0.67263239
   0.86427487  0.42259152  0.65662400
   0.76115901  0.56177946  0.01224689
   0.89700019  0.79723536  0.83714761
   0.27891768  0.46157162  0.16369427
   0.53479865  0.53149290  0.37556592
   0.64535671  0.91291496  0.73977331
   0.06064750  0.97700872  0.73834652
   0.76253558  0.24593116  0.13658378
   0.97315001  0.90763628  0.73457177
   0.36562178  0.96388342  0.08406770
   0.70332614  0.50711915  0.11646002
   0.90738679  0.68388280  0.73835680
   0.87659158  0.26392099  0.18953218
   0.18464111  0.54153952  0.55470110
   0.41759224  0.91958612  0.96078124
   0.88428396  0.93268437  0.76571251
   0.62653564  0.07094828  0.22982955
   0.72797206  0.38463377  0.56709294
   0.58642481  0.49016393  0.22506398
   0.35031532  0.08683286  0.31599311
   0.84869080  0.85358541  0.53666462
   0.21054862  0.68381626  0.49443970
   0.49007351  0.10419021  0.07336608
   0.60245454  0.08131819  0.56871741
   0.48131950  0.19368828  0.91955403
   0.62625782  0.17459554  0.10717506
   0.25685754  0.35209232  0.07570508
   0.83489391  0.96801099  0.03582853
   0.60609301  0.43551438  0.44369417
   0.33909497  0.77696648  0.25361615
   0.52754886  0.98553490  0.17397393
   0.01837774  0.19322670  0.94781855
   0.86981768  0.67728800  0.47584028
   0.21064969  0.74986138  0.04489034
   0.51997387  0.99172231  0.51961169
   0.72022542  0.02747998  0.81271625
   0.73825110  0.12381650  0.33585688
   0.51643539  0.87382553  0.23240149
   0.18924731  0.46628316  0.72137227
   0.34521458  0.66896915  0.68229605
   0.10424416  0.17687162  0.89185723
   0.21823725  0.22264029  0.95251363
   0.37721562  0.18108231  0.90096802
   0.27986646  0.76479123  0.69635039
   0.20877981  0.24681563  0.31207789
   0.86609585  0.57984211  0.00018257
   0.25291898  0.16879185  0.20557174
   0.22479744  0.88396689  0.25283820
   0.41437944  0.58404208  0.69582537
   0.04929384  0.77918247  0.33045013
   0.48989425  0.08835549  0.44104646
   0.31061526  0.92919590  0.15804799
   0.36495777  0.18639708  0.36428130
   0.03702575  0.46943523  0.64570905
   0.67033697  0.08411227  0.11169017
   0.09842972  0.50277326  0.50653296
   0.69074992  0.63351384  0.84167060
   0.34453246  0.05725012  0.13480941
   0.60281361  0.80644004  0.30925158
   0.08095907  0.27489103  0.95256699
   0.83628602  0.77028715  0.36257159
   0.96059920  0.54331033  0.03661878
   0.77436324  0.47313439  0.60773806
   0.17753595  0.05532779  0.41527490
   0.98477829  0.60588779  0.81781510
   0.94878870  0.52444408  0.17678970
   0.13965829  0.73613729  0.28607020
   0.67553318  0.22386890  0.68269099
   0.01530656  0.06123397  0.40474558
   0.22300936  0.40007838  0.20047688
   0.15656242  0.22402669  0.40146163
   0.69390371  0.42761250  0.69023601
   0.24858036  0.16133599  0.84842328
   0.55496084  0.73566204  0.91334555
   0.66539384  0.20020300  0.98079368
   0.73854319  0.33864532  0.07662273
   0.86573430  0.24051096  0.34767111
   0.78944314  0.20766929  0.00935372
   0.11530709  0.61745918  0.39247031
   0.40324246  0.62416196  0.30533559
   0.60866367  0.93588004  0.37590303
   0.12648869  0.50326196  0.78777060
   0.60154156  0.46314553  0.95348052
   0.27253143  0.47097026  0.45696783
   0.25893349  0.39281280  0.70925250
   0.56261836  0.64366553  0.87601940
   0.16758915  0.66167287  0.24891075
   0.64280257  0.52819872  0.46242437
   0.22150002  0.02359657  0.60809383
   0.80459230  0.46787532  0.27050342
   0.40254215  0.65690021  0.59833259
   0.24800471  0.79594351  0.26327613
   0.87479739  0.95474868  0.57257447
   0.89643792  0.49175993  0.61122039
   0.01524492  0.25897147  0.09017515
   0.47986007  0.96116563  0.28493127
   0.43374676  0.71093781  0.35170863
   0.64762261  0.09190372  0.80514711
   0.05413263  0.38355883  0.64577175
   0.98873406  0.18757113  0.72117048
   0.98765776  0.06163851  0.63085052
   0.12862987  0.37745589  0.64201160
   0.31596348  0.27895629  0.04921278
   0.41795163  0.01793406  0.01453723
   0.25720822  0.55941191  0.08206819
   0.43127073  0.85595229  0.62090757
   0.63471114  0.91409171  0.91028566
   0.56715113  0.61649232  0.50986382
   0.48228007  0.33060643  0.72640831
   0.71990322  0.08413985  0.67501854
   0.78001755  0.37695410  0.44241473
   0.81657693  0.91934948  0.14840733
   0.35873193  0.87188765  0.64670070
   0.68980231  0.48579075  0.91612107
   0.05328489  0.14475308  0.45122733
   0.79890487  0.05685655  0.03957555
   0.59464542  0.77911298  0.55373782
   0.05419203  0.64766148  0.43300949
   0.17011206  0.42211612  0.99501418
   0.25588906  0.06784843  0.25470174
   0.82866404  0.35139687  0.12835985
   0.23707809  0.27262173  0.16663701
   0.40028421  0.99718225  0.44078092
   0.84224816  0.13679286  0.56184799
   0.90399507  0.20698030  0.85691311
   0.10018204  0.53094218  0.06244914
   0.26575564  0.54798444  0.25606093
   0.25832545  0.32653247  0.46486123
   0.83008922  0.62047329  0.55064297
   0.86633629  0.33638296  0.55086287
   0.98562939  0.92126576  0.56194626
   0.66248422  0.16489060  0.34833726
   0.49500880  0.27002492  0.49177458
   0.54363331  0.99526300  0.73584011
   0.56744567  0.07150752  0.31597871
   0.53507801  0.03036011  0.01551923
   0.02469294  0.83443693  0.42465045
   0.22340998  0.85001407  0.58675895
   0.57801730  0.30479602  0.88452122
   0.94550581  0.93907136  0.20292584
   0.48885047  0.58549423  0.47510700
   0.54644141  0.45354285  0.00894654
   0.24217891  0.84437389  0.76980204
   0.73065569  0.22248680  0.27178692
   0.27270748  0.43506566  0.96959946
   0.68538411  0.97700073  0.29662636
   0.39282732  0.74454479  0.16858553
   0.96552359  0.39660416  0.87891264
   0.51651313  0.77084868  0.19179410
   0.34825856  0.69395762  0.87641718
   0.26974928  0.20228840  0.73896620
   0.15887165  0.93870032  0.81549872
   0.56777462  0.27180340  0.01867259
   0.10641047  0.78158912  0.94571336
   0.03996740  0.98908834  0.90000431
   0.53001379  0.45367858  0.47488217
   0.74694492  0.22541088  0.66905474
   0.28075798  0.50553941  0.76698114
   0.83720973  0.09357058  0.41217144
   0.26901906  0.59792113  0.57219410
   0.51501552  0.59613709  0.90675085
   0.57531072  0.76441276  0.79582520
   0.01374740  0.10400450  0.98033961
   0.35539641  0.38848952  0.25430508
   0.51594150  0.82827329  0.41485107
   0.79847382  0.87664666  0.63832365
   0.64240885  0.39505056  0.32625815
   0.11532026  0.74494767  0.80598410
   0.38107057  0.24525016  0.74263057
   0.48512474  0.34775632  0.57533768
   0.20293035  0.34932334  0.52391785
   0.74270222  0.96002469  0.24069732
   0.53875703  0.14077526  0.85971614
   0.75349522  0.93551405  0.80937450
   0.37053317  0.87167269  0.31102534
   0.97279305  0.87386929  0.91887307
   0.97692071  0.73224371  0.96173215
   0.75697685  0.65333231  0.68891163
   0.10739126  0.28731776  0.26080720
   0.92474266  0.17961847  0.14857048
   0.94696040  0.81699979  0.61613178
   0.50868736  0.56756952  0.15990474
   0.98516832  0.27501427  0.77634315
   0.15569345  0.66728250  0.89217475
   0.41443604  0.23793962  0.31407225
   0.84594374  0.51151573  0.20815495
   0.13772825  0.17608182  0.12198365
   0.93524222  0.86283000  0.27025463
   0.42398156  0.42945672  0.10946304
   0.83190722  0.34900675  0.77877854
   0.29319986  0.74468311  0.53514311
   0.90167124  0.98697468  0.96283634
   0.13307952  0.88158022  0.18992467
   0.20482005  0.12683102  0.98543495
   0.04837695  0.59819458  0.02539749
   0.11719347  0.97257579  0.62888791
   0.38464556  0.82637080  0.81489848
   0.19034960  0.47991450  0.41614467
   0.23114718  0.30604165  0.86479422
   0.83007575  0.76201909  0.61419736
   0.09661129  0.00458013  0.27650613
   0.41813603  0.06988164  0.56101633
   0.66704799  0.83795186  0.64166858
   0.19625479  0.71389766  0.64840791
   0.59659724  0.18089457  0.51781260
   0.68819164  0.50754485  0.27647003
   0.72789411  0.69112336  0.78895638
   0.52257620  0.18726658  0.70102176
   0.41175277  0.11288964  0.82333285
   0.89507920  0.41973655  0.88673051
   0.59206372  0.59060409  0.19296134
   0.54560127  0.19265942  0.15442737
   0.70220695  0.85585663  0.95105500
   0.88862263  0.15058739  0.95046880
   0.73376266  0.28098632  0.52927308
   0.85309250  0.79892742  0.93069984
   0.42461198  0.15563770  0.11735292
   0.35640084  0.51197885  0.38168427
   0.40031723  0.86394132  0.08482399
   0.71791935  0.60074643  0.11695601
   0.12297607  0.92075949  0.32493017
   0.53299039  0.88982408  0.57281116
   0.61897002  0.98060112  0.57294631
   0.28359025  0.18134492  0.44225890
   0.67301653  0.76672362  0.91708397
   0.65082316  0.35101619  0.59365685
   0.96209660  0.72241959  0.67352400
   0.99914593  0.70375550  0.27985324
   0.30105777  0.94042014  0.85964478
   0.28690416  0.68928273  0.21990456
   0.38827546  0.95127172  0.73958369
   0.91422525  0.61962096  0.42341553
   0.72802960  0.04336527  0.44900932
   0.42588023  0.27045739  0.94530360
   0.86477628  0.02865081  0.78158498
   0.94604998  0.07262442  0.41649060
   0.76939270  0.87584563  0.30579990
   0.17426983  0.04716846  0.68010995
   0.08305164  0.08594323  0.76432975
   0.52492198  0.89791344  0.06121590
   0.43416025  0.69669135  0.91380101
   0.23345093  0.56669641  0.79760919
   0.42565190  0.51382614  0.16693180
   0.41175908  0.78044569  0.52149531
   0.85582726  0.63718473  0.83545849
   0.11347307  0.23730912  0.76597400
   0.08971716  0.91727846  0.92004734
   0.84517280  0.63817327  0.11043981
   0.02621980  0.17001882  0.27019615
   0.26376442  0.80964234  0.01985139
   0.95047103  0.33105424  0.21600590
   0.98645400  0.28515586  0.38385745
   0.76707390  0.70946894  0.28332956
   0.51732418  0.40834063  0.19602026
   0.78409866  0.52268378  0.86296669
   0.28140875  0.65333745  0.38291382
Direct configuration=     4
   0.53633584  0.08773005  0.67264298
   0.86429230  0.42257767  0.65668364
   0.76113518  0.56179868  0.01225596
   0.89684200  0.79741669  0.83682570
   0.27893012  0.46157459  0.16370514
   0.53477783  0.53148233  0.37549996
   0.64534857  0.91288735  0.73978106
   0.06067120  0.97700982  0.73839126
   0.76251342  0.24592495  0.13656881
   0.97316141  0.90762722  0.73455309