  17  17   0   0
  0.1996859E+02  0.5111958E-09  0.5111958E-09  0.1500000E-08  0.0000000E+00
  1.000000000000000E-004
  CAR 
 TS                                      
     12.31647692    -17.34388901  301      2.16968664      1.00000000
    -17.344  0.0000E+00  0.0000E+00
    -17.245  0.0000E+00  0.0000E+00
    -17.146  0.0000E+00  0.0000E+00
    -17.047  0.0000E+00  0.0000E+00
    -16.948  0.0000E+00  0.0000E+00
    -16.850  0.0000E+00  0.0000E+00
    -16.751  0.0000E+00  0.0000E+00
    -16.652  0.0000E+00  0.0000E+00
    -16.553  0.0000E+00  0.0000E+00
    -16.454  0.0000E+00  0.0000E+00
    -16.355  0.0000E+00  0.0000E+00
    -16.256  0.0000E+00  0.0000E+00
    -16.157  0.0000E+00  0.0000E+00
    -16.059  0.0000E+00  0.0000E+00
    -15.960  0.5055E-01  0.4997E-02
    -15.861  0.0000E+00  0.5000E-02
    -15.762  0.0000E+00  0.5000E-02
    -15.663  0.0000E+00  0.5000E-02
    -15.564  0.0000E+00  0.5000E-02
    -15.465  0.0000E+00  0.5000E-02
    -15.367  0.0000E+00  0.5000E-02
    -15.268  0.0000E+00  0.5000E-02
    -15.169  0.0000E+00  0.5000E-02
    -15.070  0.0000E+00  0.5000E-02
    -14.971  0.0000E+00  0.5000E-02
    -14.872  0.0000E+00  0.5000E-02
    -14.773  0.0000E+00  0.5000E-02
    -14.674  0.0000E+00  0.5000E-02
    -14.576  0.0000E+00  0.5000E-02
    -14.477  0.0000E+00  0.5000E-02
    -14.378  0.0000E+00  0.5000E-02
    -14.279  0.0000E+00  0.5000E-02
    -14.180  0.0000E+00  0.5000E-02
    -14.081  0.0000E+00  0.5000E-02
    -13.982  0.0000E+00  0.5000E-02
    -13.884  0.0000E+00  0.5000E-02
    -13.785  0.0000E+00  0.5000E-02
    -13.686  0.0000E+00  0.5000E-02
    -13.587  0.0000E+00  0.5000E-02
    -13.488  0.0000E+00  0.5000E-02
    -13.389  0.0000E+00  0.5000E-02
    -13.290  0.0000E+00  0.5000E-02
    -13.191  0.0000E+00  0.5000E-02
    -13.093  0.0000E+00  0.5000E-02
    -12.994  0.0000E+00  0.5000E-02
    -12.895  0.0000E+00  0.5000E-02
    -12.796  0.0000E+00  0.5000E-02
    -12.697  0.0000E+00  0.5000E-02
    -12.598  0.0000E+00  0.5000E-02
    -12.499  0.0000E+00  0.5000E-02
    -12.400  0.0000E+00  0.5000E-02
    -12.302  0.0000E+00  0.5000E-02
    -12.203  0.0000E+00  0.5000E-02
    -12.104  0.0000E+00  0.5000E-02
    -12.005  0.0000E+00  0.5000E-02
    -11.906  0.0000E+00  0.5000E-02
    -11.807  0.0000E+00  0.5000E-02
    -11.708  0.0000E+00  0.5000E-02
    -11.610  0.0000E+00  0.5000E-02
    -11.511  0.0000E+00  0.5000E-02
    -11.412  0.0000E+00  0.5000E-02
    -11.313  0.0000E+00  0.5000E-02
    -11.214  0.0000E+00  0.5000E-02
    -11.115  0.0000E+00  0.5000E-02
    -11.016  0.0000E+00  0.5000E-02
    -10.917  0.0000E+00  0.5000E-02
    -10.819  0.0000E+00  0.5000E-02
    -10.720  0.0000E+00  0.5000E-02
    -10.621  0.0000E+00  0.5000E-02
    -10.522  0.0000E+00  0.5000E-02
    -10.423  0.0000E+00  0.5000E-02
    -10.324  0.0000E+00  0.5000E-02
    -10.225  0.0000E+00  0.5000E-02
    -10.127  0.0000E+00  0.5000E-02
    -10.028  0.0000E+00  0.5000E-02
     -9.929  0.0000E+00  0.5000E-02
     -9.830  0.0000E+00  0.5000E-02
     -9.731  0.0000E+00  0.5000E-02
     -9.632  0.0000E+00  0.5000E-02
     -9.533  0.0000E+00  0.5000E-02
     -9.434  0.0000E+00  0.5000E-02
     -9.336  0.0000E+00  0.5000E-02
     -9.237  0.0000E+00  0.5000E-02
     -9.138  0.0000E+00  0.5000E-02
     -9.039  0.0000E+00  0.5000E-02
     -8.940  0.0000E+00  0.5000E-02
     -8.841  0.0000E+00  0.5000E-02
     -8.742  0.0000E+00  0.5000E-02
     -8.644  0.0000E+00  0.5000E-02
     -8.545  0.0000E+00  0.5000E-02
     -8.446  0.0000E+00  0.5000E-02
     -8.347  0.0000E+00  0.5000E-02
     -8.248  0.0000E+00  0.5000E-02
     -8.149  0.0000E+00  0.5000E-02
     -8.050  0.0000E+00  0.5000E-02
     -7.951  0.0000E+00  0.5000E-02
     -7.853  0.0000E+00  0.5000E-02
     -7.754  0.0000E+00  0.5000E-02
     -7.655  0.0000E+00  0.5000E-02
     -7.556  0.0000E+00  0.5000E-02
     -7.457  0.0000E+00  0.5000E-02
     -7.358  0.0000E+00  0.5000E-02
     -7.259  0.0000E+00  0.5000E-02
     -7.160  0.0000E+00  0.5000E-02
     -7.062  0.0000E+00  0.5000E-02
     -6.963  0.0000E+00  0.5000E-02
     -6.864  0.0000E+00  0.5000E-02
     -6.765  0.0000E+00  0.5000E-02
     -6.666  0.3349E-03  0.5033E-02
     -6.567  0.2392E-02  0.5298E-02
     -6.468  0.0000E+00  0.5432E-02
     -6.370  0.3248E-02  0.5753E-02
     -6.271  0.3549E-02  0.6153E-02
     -6.172  0.0000E+00  0.6173E-02
     -6.073  0.0000E+00  0.6173E-02
     -5.974  0.7491E-02  0.6913E-02
     -5.875  0.1386E-18  0.6914E-02
     -5.776  0.3746E-02  0.7284E-02
     -5.677  0.0000E+00  0.7284E-02
     -5.579  0.6500E-09  0.7284E-02
     -5.480  0.3748E-02  0.7654E-02
     -5.381  0.7491E-02  0.8395E-02
     -5.282  0.6336E-03  0.8458E-02
     -5.183  0.7218E-02  0.9171E-02
     -5.084  0.3086E-02  0.9503E-02
     -4.985  0.3741E-02  0.9938E-02
     -4.887  0.7492E-02  0.1068E-01
     -4.788  0.3632E-02  0.1104E-01
     -4.689  0.1124E-01  0.1216E-01
     -4.590  0.3635E-02  0.1252E-01
     -4.491  0.3221E-03  0.1256E-01
     -4.392  0.1489E-02  0.1293E-01
     -4.293  0.9082E-02  0.1417E-01
     -4.194  0.8740E-02  0.1512E-01
     -4.096  0.2350E-02  0.1536E-01
     -3.997  0.7401E-02  0.1623E-01
     -3.898  0.5881E-02  0.1682E-01
     -3.799  0.1249E-02  0.1735E-01
     -3.700  0.4319E-02  0.1777E-01
     -3.601  0.7534E-02  0.1865E-01
     -3.502  0.1228E-01  0.2060E-01
     -3.404  0.5644E-02  0.2179E-01
     -3.305  0.1291E-01  0.2338E-01
     -3.206  0.8143E-02  0.2488E-01
     -3.107  0.6236E-02  0.2568E-01
     -3.008  0.4183E-01  0.2994E-01
     -2.909  0.3254E-01  0.3402E-01
     -2.810  0.1660E-01  0.3590E-01
     -2.711  0.3489E-01  0.3968E-01
     -2.613  0.2592E-01  0.4256E-01
     -2.514  0.3053E-01  0.4697E-01
     -2.415  0.4404E-01  0.5182E-01
     -2.316  0.2850E-01  0.5590E-01
     -2.217  0.2421E-01  0.5943E-01
     -2.118  0.3377E-01  0.6334E-01
     -2.019  0.6155E-01  0.7004E-01
     -1.920  0.7558E-01  0.7902E-01
     -1.822  0.7481E-01  0.8789E-01
     -1.723  0.5905E-01  0.9541E-01
     -1.624  0.4879E-01  0.1022E+00
     -1.525  0.6962E-01  0.1106E+00
     -1.426  0.7974E-01  0.1212E+00
     -1.327  0.6848E-01  0.1291E+00
     -1.228  0.7040E-01  0.1380E+00
     -1.130  0.8717E-01  0.1488E+00
     -1.031  0.8115E-01  0.1578E+00
     -0.932  0.1002E+00  0.1705E+00
     -0.833  0.1028E+00  0.1820E+00
     -0.734  0.1216E+00  0.1968E+00
     -0.635  0.1279E+00  0.2133E+00
     -0.536  0.1519E+00  0.2314E+00
     -0.437  0.1521E+00  0.2496E+00
     -0.339  0.1065E+00  0.2613E+00
     -0.240  0.7999E-01  0.2707E+00
     -0.141  0.1278E+00  0.2857E+00
     -0.042  0.1032E+00  0.2985E+00
      0.057  0.1165E+00  0.3125E+00
      0.156  0.1311E+00  0.3283E+00
      0.255  0.1355E+00  0.3449E+00
      0.353  0.1203E+00  0.3600E+00
      0.452  0.1463E+00  0.3774E+00
      0.551  0.1839E+00  0.3995E+00
      0.650  0.1271E+00  0.4166E+00
      0.749  0.5963E-01  0.4252E+00
      0.848  0.2695E-01  0.4292E+00
      0.947  0.2568E-01  0.4326E+00
      1.046  0.2137E-01  0.4352E+00
      1.144  0.2737E-01  0.4386E+00
      1.243  0.8741E-02  0.4402E+00
      1.342  0.1514E-01  0.4417E+00
      1.441  0.1174E-01  0.4444E+00
      1.540  0.1990E-01  0.4464E+00
      1.639  0.8548E-02  0.4479E+00
      1.738  0.1700E-02  0.4482E+00
      1.836  0.8654E-02  0.4495E+00
      1.935  0.1030E-01  0.4509E+00
      2.034  0.1545E-01  0.4526E+00
      2.133  0.1716E-01  0.4545E+00
      2.232  0.1464E-01  0.4563E+00
      2.331  0.7864E-02  0.4574E+00
      2.430  0.1315E-01  0.4593E+00
      2.529  0.2997E-02  0.4597E+00
      2.627  0.6239E-02  0.4604E+00
      2.726  0.4707E-02  0.4608E+00
      2.825  0.7798E-02  0.4621E+00
      2.924  0.2570E-01  0.4654E+00
      3.023  0.5617E-02  0.4661E+00
      3.122  0.1703E-01  0.4678E+00
      3.221  0.9371E-02  0.4692E+00
      3.319  0.5661E-02  0.4703E+00
      3.418  0.6360E-02  0.4711E+00
      3.517  0.3158E-02  0.4715E+00
      3.616  0.7775E-02  0.4733E+00
      3.715  0.1337E-01  0.4753E+00
      3.814  0.4356E-02  0.4759E+00
      3.913  0.9793E-02  0.4771E+00
      4.012  0.1247E-01  0.4783E+00
      4.110  0.1341E-01  0.4797E+00
      4.209  0.4872E-02  0.4808E+00
      4.308  0.7488E-02  0.4817E+00
      4.407  0.8711E-02  0.4826E+00
      4.506  0.1037E-01  0.4844E+00
      4.605  0.1130E-01  0.4858E+00
      4.704  0.7525E-02  0.4867E+00
      4.803  0.1262E-01  0.4883E+00
      4.901  0.2497E-02  0.4891E+00
      5.000  0.2010E-02  0.4893E+00
      5.099  0.1249E-01  0.4909E+00
      5.198  0.9484E-02  0.4918E+00
      5.297  0.1001E-01  0.4930E+00
      5.396  0.1239E-01  0.4944E+00
      5.495  0.3499E-02  0.4947E+00
      5.593  0.1117E-01  0.4959E+00
      5.692  0.1423E-01  0.4974E+00
      5.791  0.1008E-02  0.4976E+00
      5.890  0.8466E-02  0.4984E+00
      5.989  0.7613E-02  0.4996E+00
      6.088  0.1022E-01  0.5008E+00
      6.187  0.3584E-02  0.5015E+00
      6.286  0.5472E-02  0.5025E+00
      6.384  0.9618E-02  0.5036E+00
      6.483  0.3121E-02  0.5043E+00
      6.582  0.6039E-02  0.5049E+00
      6.681  0.5526E-02  0.5056E+00
      6.780  0.5732E-02  0.5063E+00
      6.879  0.9542E-02  0.5073E+00
      6.978  0.1082E-01  0.5085E+00
      7.076  0.1878E-01  0.5108E+00
      7.175  0.9240E-02  0.5118E+00
      7.274  0.1022E-01  0.5130E+00
      7.373  0.9411E-02  0.5141E+00
      7.472  0.9515E-02  0.5154E+00
      7.571  0.1074E-01  0.5168E+00
      7.670  0.2155E-01  0.5195E+00
      7.769  0.7497E-02  0.5205E+00
      7.867  0.2166E-01  0.5230E+00
      7.966  0.8899E-02  0.5241E+00
      8.065  0.1242E-01  0.5254E+00
      8.164  0.1305E-01  0.5269E+00
      8.263  0.1487E-01  0.5285E+00
      8.362  0.1155E-01  0.5299E+00
      8.461  0.1069E-01  0.5313E+00
      8.559  0.1369E-01  0.5327E+00
      8.658  0.1271E-01  0.5343E+00
      8.757  0.1539E-01  0.5360E+00
      8.856  0.1593E-01  0.5381E+00
      8.955  0.1005E-01  0.5393E+00
      9.054  0.7638E-02  0.5404E+00
      9.153  0.1955E-01  0.5426E+00
      9.252  0.9459E-02  0.5438E+00
      9.350  0.1522E-01  0.5457E+00
      9.449  0.2321E-01  0.5485E+00
      9.548  0.1706E-01  0.5504E+00
      9.647  0.1123E-01  0.5521E+00
      9.746  0.1282E-01  0.5536E+00
      9.845  0.1760E-01  0.5557E+00
      9.944  0.1364E-01  0.5573E+00
     10.043  0.9313E-02  0.5584E+00
     10.141  0.1061E-01  0.5598E+00
     10.240  0.1226E-01  0.5612E+00
     10.339  0.1293E-01  0.5631E+00
     10.438  0.2237E-01  0.5655E+00
     10.537  0.1356E-01  0.5671E+00
     10.636  0.8361E-02  0.5682E+00
     10.735  0.3118E-02  0.5686E+00
     10.833  0.4230E-02  0.5690E+00
     10.932  0.5618E-02  0.5699E+00
     11.031  0.1249E-02  0.5700E+00
     11.130  0.0000E+00  0.5700E+00
     11.229  0.0000E+00  0.5700E+00
     11.328  0.0000E+00  0.5700E+00
     11.427  0.0000E+00  0.5700E+00
     11.526  0.0000E+00  0.5700E+00
     11.624  0.0000E+00  0.5700E+00
     11.723  0.0000E+00  0.5700E+00
     11.822  0.0000E+00  0.5700E+00
     11.921  0.0000E+00  0.5700E+00
     12.020  0.0000E+00  0.5700E+00
     12.119  0.0000E+00  0.5700E+00
     12.218  0.0000E+00  0.5700E+00
     12.316  0.0000E+00  0.5700E+00
