       N       E                     dE             d eps       ncg     rms          rms(c)
DAV:   1     0.179684400045E+04    0.17968E+04   -0.76804E+04 18696   0.233E+03
DAV:   2     0.229443794356E+03   -0.15674E+04   -0.15156E+04 18696   0.482E+02
DAV:   3    -0.516331177703E+02   -0.28108E+03   -0.26024E+03 21294   0.237E+02
DAV:   4    -0.775507254285E+02   -0.25918E+02   -0.24659E+02 26682   0.823E+01
DAV:   5    -0.784031435490E+02   -0.85242E+00   -0.84822E+00 23130   0.158E+01    0.320E+01
DAV:   6    -0.710607852908E+02    0.73424E+01   -0.16550E+02 23040   0.137E+02    0.216E+01
DAV:   7    -0.631819438523E+02    0.78788E+01   -0.70270E+01 24768   0.857E+01    0.750E+00
DAV:   8    -0.625860641786E+02    0.59588E+00   -0.13612E+01 26394   0.604E+01    0.449E+00
DAV:   9    -0.624642843966E+02    0.12178E+00   -0.34855E+00 27294   0.285E+01    0.231E+00
DAV:  10    -0.624112521093E+02    0.53032E-01   -0.14132E+00 28398   0.138E+01    0.230E+00
DAV:  11    -0.623967510040E+02    0.14501E-01   -0.49507E-01 27000   0.119E+01    0.191E+00
DAV:  12    -0.623728982996E+02    0.23853E-01   -0.44666E-01 28428   0.493E+00    0.107E+00
DAV:  13    -0.623625290616E+02    0.10369E-01   -0.13556E-01 28350   0.467E+00    0.793E-01
DAV:  14    -0.623535048784E+02    0.90242E-02   -0.41371E-02 24900   0.285E+00    0.269E-01
DAV:  15    -0.623543718733E+02   -0.86699E-03   -0.17268E-02 27810   0.123E+00    0.114E-01
DAV:  16    -0.623542752782E+02    0.96595E-04   -0.29459E-03 23148   0.710E-01    0.913E-02
DAV:  17    -0.623542767403E+02   -0.14621E-05   -0.10002E-03 28152   0.452E-01    0.105E-01
DAV:  18    -0.623541722721E+02    0.10447E-03   -0.28983E-04 23268   0.255E-01    0.632E-02
DAV:  19    -0.623542441408E+02   -0.71869E-04   -0.83339E-04 29754   0.268E-01    0.502E-02
DAV:  20    -0.623542966824E+02   -0.52542E-04   -0.20116E-04 26808   0.197E-01    0.336E-02
DAV:  21    -0.623543027099E+02   -0.60275E-05   -0.69092E-05 24456   0.102E-01    0.143E-02
DAV:  22    -0.623543528562E+02   -0.50146E-04   -0.19490E-05 25806   0.453E-02    0.974E-03
DAV:  23    -0.623543881647E+02   -0.35308E-04   -0.12350E-05 21768   0.543E-02    0.970E-03
DAV:  24    -0.623543933691E+02   -0.52044E-05   -0.47314E-06 20670   0.400E-02    0.730E-03
DAV:  25    -0.623543984184E+02   -0.50493E-05   -0.74571E-06 26940   0.237E-02    0.261E-03
DAV:  26    -0.623543995170E+02   -0.10986E-05   -0.12156E-06 22590   0.149E-02    0.224E-03
DAV:  27    -0.623543996576E+02   -0.14058E-06   -0.32583E-07 15672   0.878E-03    0.591E-04
DAV:  28    -0.623543996391E+02    0.18506E-07   -0.23360E-07 14856   0.370E-03
   1 F= -.62354400E+02 E0= -.62354132E+02  d E =-.623544E+02
       N       E                     dE             d eps       ncg     rms          rms(c)
DAV:   1    -0.623544259764E+02   -0.26319E-04   -0.28684E-03 19302   0.169E-01    0.555E-03
DAV:   2    -0.623544322749E+02   -0.62985E-05   -0.64985E-05 27672   0.408E-02    0.390E-03
DAV:   3    -0.623544321379E+02    0.13696E-06   -0.80383E-07 21984   0.155E-02    0.300E-03
DAV:   4    -0.623544320791E+02    0.58841E-07   -0.63935E-07 15684   0.183E-02
   2 F= -.62354432E+02 E0= -.62354164E+02  d E =-.324400E-04
       N       E                     dE             d eps       ncg     rms          rms(c)
DAV:   1    -0.623544846015E+02   -0.52464E-04   -0.11486E-02 19128   0.338E-01    0.110E-02
DAV:   2    -0.623545089609E+02   -0.24359E-04   -0.25282E-04 27480   0.804E-02    0.782E-03
DAV:   3    -0.623545084955E+02    0.46536E-06   -0.53024E-06 22332   0.401E-02    0.650E-03
DAV:   4    -0.623545082212E+02    0.27426E-06   -0.34611E-06 22104   0.392E-02    0.523E-03
DAV:   5    -0.623545078026E+02    0.41861E-06   -0.32975E-06 32832   0.248E-02    0.292E-03
DAV:   6    -0.623545076846E+02    0.11807E-06   -0.69203E-07 20400   0.205E-02    0.137E-03
DAV:   7    -0.623545076668E+02    0.17764E-07   -0.15084E-07 10512   0.491E-03
   3 F= -.62354508E+02 E0= -.62354240E+02  d E =-.755877E-04
       N       E                     dE             d eps       ncg     rms          rms(c)
DAV:   1    -0.623545929839E+02   -0.85299E-04   -0.25226E-02 19140   0.499E-01    0.159E-02
DAV:   2    -0.623546458686E+02   -0.52885E-04   -0.54359E-04 27192   0.118E-01    0.111E-02
DAV:   3    -0.623546445983E+02    0.12703E-05   -0.57597E-06 23286   0.378E-02    0.851E-03
DAV:   4    -0.623546442391E+02    0.35916E-06   -0.73414E-06 22560   0.581E-02    0.790E-03
DAV:   5    -0.623546432198E+02    0.10193E-05   -0.83753E-06 36786   0.466E-02    0.388E-03
DAV:   6    -0.623546430486E+02    0.17123E-06   -0.15404E-06 25752   0.286E-02    0.149E-03
DAV:   7    -0.623546430351E+02    0.13486E-07   -0.17069E-07 10368   0.651E-03
   4 F= -.62354643E+02 E0= -.62354376E+02  d E =-.135368E-03
       N       E                     dE             d eps       ncg     rms          rms(c)
DAV:   1    -0.623547790152E+02   -0.13597E-03   -0.44196E-02 19122   0.661E-01    0.206E-02
DAV:   2    -0.623548692449E+02   -0.90230E-04   -0.92744E-04 27180   0.155E-01    0.147E-02
DAV:   3    -0.623548669992E+02    0.22458E-05   -0.93207E-06 22914   0.490E-02    0.112E-02
DAV:   4    -0.623548662497E+02    0.74952E-06   -0.10612E-05 22584   0.750E-02    0.103E-02
DAV:   5    -0.623548647614E+02    0.14883E-05   -0.16165E-05 36942   0.673E-02    0.599E-03
DAV:   6    -0.623548642805E+02    0.48092E-06   -0.39902E-06 29892   0.434E-02    0.203E-03
DAV:   7    -0.623548642596E+02    0.20860E-07   -0.40498E-07 16632   0.931E-03
   5 F= -.62354864E+02 E0= -.62354598E+02  d E =-.221225E-03
       N       E                     dE             d eps       ncg     rms          rms(c)
DAV:   1    -0.623550055844E+02   -0.14130E-03   -0.68789E-02 19092   0.825E-01    0.258E-02
DAV:   2    -0.623551467134E+02   -0.14113E-03   -0.14507E-03 27108   0.194E-01    0.184E-02
DAV:   3    -0.623551432148E+02    0.34986E-05   -0.15069E-05 22572   0.645E-02    0.141E-02
DAV:   4    -0.623551420240E+02    0.11909E-05   -0.16314E-05 22608   0.927E-02    0.128E-02
DAV:   5    -0.623551397152E+02    0.23088E-05   -0.24802E-05 36924   0.826E-02    0.768E-03
DAV:   6    -0.623551389186E+02    0.79656E-06   -0.65419E-06 29220   0.556E-02    0.254E-03
DAV:   7    -0.623551389010E+02    0.17622E-07   -0.81409E-07 26016   0.120E-02
   6 F= -.62355139E+02 E0= -.62354874E+02  d E =-.274641E-03
       N       E                     dE             d eps       ncg     rms          rms(c)
DAV:   1    -0.623551900355E+02   -0.51117E-04   -0.10054E-01 19062   0.999E-01    0.320E-02
DAV:   2    -0.623554028302E+02   -0.21279E-03   -0.21880E-03 27042   0.234E-01    0.222E-02
DAV:   3    -0.623553974708E+02    0.53594E-05   -0.19081E-05 24576   0.642E-02    0.167E-02
DAV:   4    -0.623553960486E+02    0.14222E-05   -0.29869E-05 22740   0.120E-01    0.161E-02
DAV:   5    -0.623553918963E+02    0.41524E-05   -0.37369E-05 37152   0.102E-01    0.718E-03
DAV:   6    -0.623553912665E+02    0.62980E-06   -0.62302E-06 31602   0.553E-02    0.286E-03
DAV:   7    -0.623553912470E+02    0.19474E-07   -0.10440E-06 27108   0.111E-02    0.185E-03
DAV:   8    -0.623553912094E+02    0.37599E-07   -0.14479E-07 10452   0.742E-03
   7 F= -.62355391E+02 E0= -.62355128E+02  d E =-.252308E-03
       N       E                     dE             d eps       ncg     rms          rms(c)
DAV:   1    -0.623552824947E+02    0.10875E-03   -0.13605E-01 19032   0.117E+00    0.405E-02
DAV:   2    -0.623555942876E+02   -0.31179E-03   -0.32163E-03 27462   0.286E-01    0.277E-02
DAV:   3    -0.623555886865E+02    0.56012E-05   -0.65290E-05 22068   0.155E-01    0.225E-02
DAV:   4    -0.623555850618E+02    0.36247E-05   -0.41280E-05 22644   0.133E-01    0.178E-02
DAV:   5    -0.623555800062E+02    0.50556E-05   -0.34615E-05 35880   0.814E-02    0.927E-03
DAV:   6    -0.623555788897E+02    0.11164E-05   -0.10786E-05 27576   0.760E-02    0.412E-03
DAV:   7    -0.623555788428E+02    0.46908E-07   -0.21592E-06 28656   0.218E-02    0.248E-03
DAV:   8    -0.623555787735E+02    0.69354E-07   -0.36837E-07 17754   0.716E-03
   8 F= -.62355579E+02 E0= -.62355317E+02  d E =-.187564E-03
       N       E                     dE             d eps       ncg     rms          rms(c)
DAV:   1    -0.623554866995E+02    0.92143E-04   -0.15878E-01 19068   0.126E+00    0.407E-02
DAV:   2    -0.623558264101E+02   -0.33971E-03   -0.35132E-03 27750   0.313E-01    0.311E-02
DAV:   3    -0.623558209056E+02    0.55045E-05   -0.10036E-04 21552   0.195E-01    0.258E-02
DAV:   4    -0.623558157459E+02    0.51597E-05   -0.42187E-05 22080   0.134E-01    0.192E-02
DAV:   5    -0.623558111529E+02    0.45929E-05   -0.45040E-05 35508   0.111E-01    0.135E-02
DAV:   6    -0.623558079373E+02    0.32156E-05   -0.22745E-05 27264   0.107E-01    0.479E-03
DAV:   7    -0.623558079344E+02    0.29613E-08   -0.40109E-06 28644   0.267E-02    0.286E-03
DAV:   8    -0.623558078588E+02    0.75601E-07   -0.62271E-07 21330   0.996E-03
   9 F= -.62355808E+02 E0= -.62355550E+02  d E =-.229085E-03
       N       E                     dE             d eps       ncg     rms          rms(c)
DAV:   1    -0.623556481508E+02    0.15978E-03   -0.16676E-01 19050   0.130E+00    0.460E-02
DAV:   2    -0.623560387164E+02   -0.39057E-03   -0.40471E-03 28164   0.370E-01    0.370E-02
DAV:   3    -0.623560383681E+02    0.34829E-06   -0.28314E-04 21516   0.332E-01    0.316E-02
DAV:   4    -0.623560274028E+02    0.10965E-04   -0.83654E-05 21996   0.176E-01    0.194E-02
DAV:   5    -0.623560227830E+02    0.46198E-05   -0.40666E-05 36036   0.105E-01    0.122E-02
DAV:   6    -0.623560207189E+02    0.20642E-05   -0.18130E-05 24288   0.109E-01    0.419E-03
DAV:   7    -0.623560208104E+02   -0.91539E-07   -0.39719E-06 27600   0.262E-02    0.248E-03
DAV:   8    -0.623560207791E+02    0.31319E-07   -0.72423E-07 20388   0.109E-02
  10 F= -.62356021E+02 E0= -.62355764E+02  d E =-.212920E-03
       N       E                     dE             d eps       ncg     rms          rms(c)
DAV:   1    -0.623557205488E+02    0.30026E-03   -0.16271E-01 18996   0.128E+00    0.435E-02
DAV:   2    -0.623560923440E+02   -0.37180E-03   -0.38578E-03 28278   0.342E-01    0.342E-02
DAV:   3    -0.623560907434E+02    0.16006E-05   -0.20205E-04 21312   0.278E-01    0.300E-02
DAV:   4    -0.623560823204E+02    0.84230E-05   -0.64985E-05 21756   0.158E-01    0.195E-02
DAV:   5    -0.623560776035E+02    0.47170E-05   -0.39245E-05 36372   0.108E-01    0.130E-02
DAV:   6    -0.623560748967E+02    0.27068E-05   -0.19275E-05 24834   0.109E-01    0.489E-03
DAV:   7    -0.623560748994E+02   -0.27139E-08   -0.43720E-06 28548   0.297E-02    0.285E-03
DAV:   8    -0.623560748308E+02    0.68572E-07   -0.87675E-07 22416   0.137E-02
  11 F= -.62356075E+02 E0= -.62355822E+02  d E =-.540517E-04
       N       E                     dE             d eps       ncg     rms          rms(c)
DAV:   1    -0.623552955672E+02    0.77933E-03   -0.17281E-01 18810   0.132E+00    0.491E-02
DAV:   2    -0.623557321274E+02   -0.43656E-03   -0.45100E-03 27618   0.356E-01    0.360E-02
DAV:   3    -0.623557304363E+02    0.16911E-05   -0.23733E-04 22248   0.295E-01    0.315E-02
DAV:   4    -0.623557199497E+02    0.10487E-04   -0.82272E-05 22788   0.180E-01    0.199E-02
DAV:   5    -0.623557154424E+02    0.45073E-05   -0.43072E-05 35640   0.122E-01    0.143E-02
DAV:   6    -0.623557126165E+02    0.28259E-05   -0.19765E-05 25452   0.112E-01    0.403E-03
DAV:   7    -0.623557127254E+02   -0.10890E-06   -0.38786E-06 27756   0.192E-02    0.258E-03
DAV:   8    -0.623557126413E+02    0.84117E-07   -0.46032E-07 18972   0.122E-02
  12 F= -.62355713E+02 E0= -.62355461E+02  d E =0.362190E-03
       N       E                     dE             d eps       ncg     rms          rms(c)
DAV:   1    -0.623547458649E+02    0.96686E-03   -0.20516E-01 18822   0.144E+00    0.532E-02
DAV:   2    -0.623552652641E+02   -0.51940E-03   -0.53705E-03 27756   0.358E-01    0.353E-02
DAV:   3    -0.623552571468E+02    0.81173E-05   -0.11713E-04 22128   0.204E-01    0.292E-02
DAV:   4    -0.623552513385E+02    0.58083E-05   -0.65433E-05 22776   0.165E-01    0.224E-02
DAV:   5    -0.623552426387E+02    0.86998E-05   -0.46756E-05 34692   0.838E-02    0.939E-03
DAV:   6    -0.623552413126E+02    0.13260E-05   -0.14155E-05 31164   0.735E-02    0.492E-03
DAV:   7    -0.623552412443E+02    0.68332E-07   -0.33281E-06 28242   0.293E-02    0.325E-03
DAV:   8    -0.623552411243E+02    0.11994E-06   -0.75610E-07 20766   0.125E-02    0.172E-03
DAV:   9    -0.623552411038E+02    0.20540E-07   -0.29501E-07 13890   0.108E-02
  13 F= -.62355241E+02 E0= -.62354993E+02  d E =0.471537E-03
       N       E                     dE             d eps       ncg     rms          rms(c)
DAV:   1    -0.623541653550E+02    0.10758E-02   -0.22901E-01 18810   0.153E+00    0.591E-02
DAV:   2    -0.623547720035E+02   -0.60665E-03   -0.62737E-03 27960   0.411E-01    0.405E-02
DAV:   3    -0.623547671208E+02    0.48827E-05   -0.25256E-04 22236   0.322E-01    0.354E-02
DAV:   4    -0.623547549342E+02    0.12187E-04   -0.95045E-05 22680   0.196E-01    0.230E-02
DAV:   5    -0.623547495274E+02    0.54069E-05   -0.58128E-05 36264   0.143E-01    0.174E-02
DAV:   6    -0.623547449304E+02    0.45970E-05   -0.31077E-05 25212   0.134E-01    0.471E-03
DAV:   7    -0.623547451922E+02   -0.26182E-06   -0.62937E-06 28500   0.251E-02    0.311E-03
DAV:   8    -0.623547450739E+02    0.11834E-06   -0.75043E-07 20862   0.119E-02    0.183E-03
DAV:   9    -0.623547450409E+02    0.32960E-07   -0.24204E-07 13206   0.113E-02
  14 F= -.62354745E+02 E0= -.62354498E+02  d E =0.496063E-03
       N       E                     dE             d eps       ncg     rms          rms(c)
DAV:   1    -0.623543400671E+02    0.40501E-03   -0.22095E-01 19062   0.149E+00    0.494E-02
DAV:   2    -0.623548315840E+02   -0.49152E-03   -0.50922E-03 27954   0.395E-01    0.396E-02
DAV:   3    -0.623548267660E+02    0.48180E-05   -0.22869E-04 21012   0.302E-01    0.335E-02
DAV:   4    -0.623548169252E+02    0.98408E-05   -0.70321E-05 21792   0.168E-01    0.227E-02
DAV:   5    -0.623548126744E+02    0.42509E-05   -0.62627E-05 35952   0.154E-01    0.191E-02
DAV:   6    -0.623548063617E+02    0.63127E-05   -0.38449E-05 27900   0.139E-01    0.502E-03
DAV:   7    -0.623548065746E+02   -0.21287E-06   -0.68076E-06 28536   0.274E-02    0.325E-03
DAV:   8    -0.623548064673E+02    0.10723E-06   -0.80614E-07 20730   0.142E-02    0.201E-03
DAV:   9    -0.623548064265E+02    0.40862E-07   -0.26852E-07 13392   0.106E-02
  15 F= -.62354806E+02 E0= -.62354563E+02  d E =-.613856E-04
       N       E                     dE             d eps       ncg     rms          rms(c)
DAV:   1    -0.623544676042E+02    0.33886E-03   -0.17449E-01 19056   0.133E+00    0.481E-02
DAV:   2    -0.623548909068E+02   -0.42330E-03   -0.44051E-03 28128   0.418E-01    0.421E-02
DAV:   3    -0.623548900095E+02    0.89728E-06   -0.39279E-04 21564   0.390E-01    0.337E-02
DAV:   4    -0.623548776329E+02    0.12377E-04   -0.97295E-05 22164   0.185E-01    0.202E-02
DAV:   5    -0.623548743878E+02    0.32451E-05   -0.44474E-05 35568   0.135E-01    0.160E-02
DAV:   6    -0.623548704325E+02    0.39553E-05   -0.25016E-05 24006   0.125E-01    0.311E-03
DAV:   7    -0.623548708938E+02   -0.46128E-06   -0.63556E-06 28350   0.251E-02    0.260E-03
DAV:   8    -0.623548708555E+02    0.38279E-07   -0.79116E-07 19998   0.153E-02
  16 F= -.62354871E+02 E0= -.62354629E+02  d E =-.644290E-04
       N       E                     dE             d eps       ncg     rms          rms(c)
DAV:   1    -0.623545629111E+02    0.30798E-03   -0.10122E-01 19026   0.101E+00    0.353E-02
DAV:   2    -0.623548008023E+02   -0.23789E-03   -0.24919E-03 28452   0.319E-01    0.320E-02
DAV:   3    -0.623548013044E+02   -0.50204E-06   -0.23648E-04 21156   0.300E-01    0.261E-02
DAV:   4    -0.623547944670E+02    0.68373E-05   -0.55063E-05 21516   0.136E-01    0.155E-02
DAV:   5    -0.623547924980E+02    0.19690E-05   -0.26963E-05 35778   0.103E-01    0.122E-02
DAV:   6    -0.623547901449E+02    0.23532E-05   -0.14952E-05 23754   0.969E-02    0.247E-03
DAV:   7    -0.623547903891E+02   -0.24425E-06   -0.36969E-06 27738   0.212E-02    0.194E-03
DAV:   8    -0.623547903793E+02    0.98662E-08   -0.53568E-07 19734   0.133E-02
  17 F= -.62354790E+02 E0= -.62354551E+02  d E =0.804762E-04
       N       E                     dE             d eps       ncg     rms          rms(c)
DAV:   1    -0.623543231539E+02    0.46724E-03   -0.74969E-02 18936   0.873E-01    0.322E-02
DAV:   2    -0.623545123661E+02   -0.18921E-03   -0.19586E-03 27924   0.247E-01    0.253E-02
DAV:   3    -0.623545122470E+02    0.11907E-06   -0.13225E-04 21900   0.220E-01    0.218E-02
DAV:   4    -0.623545070526E+02    0.51944E-05   -0.39926E-05 22608   0.124E-01    0.132E-02
DAV:   5    -0.623545051948E+02    0.18578E-05   -0.18754E-05 35934   0.831E-02    0.929E-03
DAV:   6    -0.623545039491E+02    0.12458E-05   -0.90898E-06 25140   0.764E-02    0.266E-03
DAV:   7    -0.623545040282E+02   -0.79152E-07   -0.19686E-06 28326   0.166E-02    0.184E-03
DAV:   8    -0.623545039970E+02    0.31243E-07   -0.34618E-07 16884   0.103E-02
  18 F= -.62354504E+02 E0= -.62354265E+02  d E =0.286382E-03
       N       E                     dE             d eps       ncg     rms          rms(c)
DAV:   1    -0.623540162798E+02    0.48775E-03   -0.90492E-02 18906   0.960E-01    0.341E-02
DAV:   2    -0.623542367676E+02   -0.22049E-03   -0.22766E-03 27120   0.232E-01    0.228E-02
DAV:   3    -0.623542325276E+02    0.42400E-05   -0.37997E-05 21900   0.113E-01    0.184E-02
DAV:   4    -0.623542303806E+02    0.21471E-05   -0.27990E-05 22536   0.109E-01    0.150E-02
DAV:   5    -0.623542263816E+02    0.39990E-05   -0.23816E-05 35460   0.614E-02    0.626E-03
DAV:   6    -0.623542258878E+02    0.49378E-06   -0.56763E-06 31104   0.506E-02    0.336E-03
DAV:   7    -0.623542258169E+02    0.70930E-07   -0.11073E-06 25272   0.165E-02    0.213E-03
DAV:   8    -0.623542257531E+02    0.63799E-07   -0.26759E-07 12978   0.730E-03
  19 F= -.62354226E+02 E0= -.62353989E+02  d E =0.278244E-03
       N       E                     dE             d eps       ncg     rms          rms(c)
DAV:   1    -0.623539227576E+02    0.30306E-03   -0.11809E-01 19020   0.109E+00    0.362E-02
DAV:   2    -0.623541894236E+02   -0.26667E-03   -0.27476E-03 27024   0.260E-01    0.253E-02
DAV:   3    -0.623541835409E+02    0.58827E-05   -0.41059E-05 22176   0.112E-01    0.201E-02
DAV:   4    -0.623541810103E+02    0.25306E-05   -0.36624E-05 22716   0.124E-01    0.172E-02
DAV:   5    -0.623541753195E+02    0.56908E-05   -0.31659E-05 35052   0.692E-02    0.633E-03
DAV:   6    -0.623541749983E+02    0.32118E-06   -0.55193E-06 30024   0.494E-02    0.334E-03
DAV:   7    -0.623541749255E+02    0.72803E-07   -0.91381E-07 22332   0.133E-02
  20 F= -.62354175E+02 E0= -.62353940E+02  d E =0.508276E-04
       N       E                     dE             d eps       ncg     rms          rms(c)
DAV:   1    -0.623542560813E+02   -0.81083E-04   -0.13774E-01 19182   0.118E+00    0.351E-02
DAV:   2    -0.623545316696E+02   -0.27559E-03   -0.28482E-03 27726   0.288E-01    0.285E-02
DAV:   3    -0.623545265696E+02    0.51000E-05   -0.78586E-05 21090   0.173E-01    0.233E-02
DAV:   4    -0.623545223312E+02    0.42384E-05   -0.29217E-05 22092   0.114E-01    0.177E-02
DAV:   5    -0.623545185992E+02    0.37320E-05   -0.41657E-05 34872   0.109E-01    0.134E-02
DAV:   6    -0.623545152593E+02    0.33399E-05   -0.23811E-05 28020   0.104E-01    0.433E-03
DAV:   7    -0.623545152840E+02   -0.24644E-07   -0.35615E-06 28554   0.234E-02    0.261E-03
DAV:   8    -0.623545152247E+02    0.59317E-07   -0.44175E-07 18606   0.763E-03
  21 F= -.62354515E+02 E0= -.62354283E+02  d E =-.340299E-03
       N       E                     dE             d eps       ncg     rms          rms(c)
DAV:   1    -0.623547558216E+02   -0.24054E-03   -0.13447E-01 19284   0.116E+00    0.340E-02
DAV:   2    -0.623550219935E+02   -0.26617E-03   -0.27603E-03 28446   0.330E-01    0.345E-02
DAV:   3    -0.623550193853E+02    0.26082E-05   -0.21990E-04 21240   0.278E-01    0.255E-02
DAV:   4    -0.623550127681E+02    0.66172E-05   -0.47153E-05 22548   0.128E-01    0.175E-02
DAV:   5    -0.623550077908E+02    0.49774E-05   -0.32343E-05 33834   0.935E-02    0.969E-03
DAV:   6    -0.623550064390E+02    0.13518E-05   -0.11815E-05 24420   0.911E-02    0.267E-03
DAV:   7    -0.623550065486E+02   -0.10957E-06   -0.23660E-06 23154   0.181E-02    0.197E-03
DAV:   8    -0.623550065282E+02    0.20344E-07   -0.46423E-07 17742   0.121E-02
  22 F= -.62355007E+02 E0= -.62354775E+02  d E =-.491304E-03
       N       E                     dE             d eps       ncg     rms          rms(c)
DAV:   1    -0.623552833789E+02   -0.27683E-03   -0.72489E-02 19338   0.851E-01    0.272E-02
DAV:   2    -0.623554359100E+02   -0.15253E-03   -0.16134E-03 28530   0.286E-01    0.290E-02
DAV:   3    -0.623554351003E+02    0.80970E-06   -0.18343E-04 21216   0.258E-01    0.206E-02
DAV:   4    -0.623554312295E+02    0.38708E-05   -0.35535E-05 21360   0.101E-01    0.130E-02
DAV:   5    -0.623554298522E+02    0.13772E-05   -0.18658E-05 31830   0.940E-02    0.109E-02
DAV:   6    -0.623554279272E+02    0.19250E-05   -0.11281E-05 24162   0.833E-02    0.145E-03
DAV:   7    -0.623554281796E+02   -0.25240E-06   -0.28464E-06 28170   0.189E-02    0.184E-03
DAV:   8    -0.623554281789E+02    0.68030E-09   -0.43748E-07 18582   0.119E-02
  23 F= -.62355428E+02 E0= -.62355199E+02  d E =-.421651E-03
       N       E                     dE             d eps       ncg     rms          rms(c)
DAV:   1    -0.623555830000E+02   -0.15482E-03   -0.16667E-02 19278   0.409E-01    0.135E-02
DAV:   2    -0.623556204445E+02   -0.37445E-04   -0.39216E-04 28272   0.151E-01    0.155E-02
DAV:   3    -0.623556200457E+02    0.39885E-06   -0.54910E-05 21288   0.138E-01    0.965E-03
DAV:   4    -0.623556192733E+02    0.77239E-06   -0.94166E-06 22062   0.504E-02    0.606E-03
DAV:   5    -0.623556190413E+02    0.23197E-06   -0.41421E-06 29160   0.429E-02    0.473E-03
DAV:   6    -0.623556187589E+02    0.28236E-06   -0.24751E-06 22998   0.385E-02    0.109E-03
DAV:   7    -0.623556187920E+02   -0.33018E-07   -0.58856E-07 19416   0.945E-03
  24 F= -.62355619E+02 E0= -.62355390E+02  d E =-.190613E-03
       N       E                     dE             d eps       ncg     rms          rms(c)
DAV:   1    -0.623557107102E+02   -0.91951E-04   -0.16597E-02 19248   0.408E-01    0.116E-02
DAV:   2    -0.623557430241E+02   -0.32314E-04   -0.33224E-04 27090   0.941E-02    0.901E-03
DAV:   3    -0.623557421225E+02    0.90159E-06   -0.32270E-06 22512   0.295E-02    0.695E-03
DAV:   4    -0.623557416944E+02    0.42815E-06   -0.21379E-06 22068   0.399E-02    0.608E-03
DAV:   5    -0.623557409875E+02    0.70684E-06   -0.37033E-06 35316   0.298E-02    0.228E-03
DAV:   6    -0.623557409355E+02    0.52059E-07   -0.84807E-07 17052   0.199E-02
  25 F= -.62355741E+02 E0= -.62355513E+02  d E =-.122144E-03
       N       E                     dE             d eps       ncg     rms          rms(c)
DAV:   1    -0.623557290724E+02    0.11915E-04   -0.24418E-02 19062   0.497E-01    0.156E-02
DAV:   2    -0.623557808538E+02   -0.51781E-04   -0.53336E-04 27384   0.117E-01    0.111E-02
DAV:   3    -0.623557794801E+02    0.13736E-05   -0.52555E-06 22008   0.384E-02    0.850E-03
DAV:   4    -0.623557789291E+02    0.55107E-06   -0.43725E-06 22008   0.523E-02    0.748E-03
DAV:   5    -0.623557780085E+02    0.92053E-06   -0.76771E-06 35952   0.426E-02    0.352E-03
DAV:   6    -0.623557777904E+02    0.21816E-06   -0.29283E-06 25908   0.312E-02    0.175E-03
DAV:   7    -0.623557777658E+02    0.24571E-07   -0.31292E-07 13386   0.108E-02
  26 F= -.62355778E+02 E0= -.62355551E+02  d E =-.368303E-04
       N       E                     dE             d eps       ncg     rms          rms(c)
DAV:   1    -0.623557257359E+02    0.52055E-04   -0.33192E-02 19032   0.581E-01    0.184E-02
DAV:   2    -0.623557969201E+02   -0.71184E-04   -0.73414E-04 27396   0.137E-01    0.131E-02
DAV:   3    -0.623557949343E+02    0.19858E-05   -0.67132E-06 21936   0.415E-02    0.998E-03
DAV:   4    -0.623557940807E+02    0.85360E-06   -0.44522E-06 21606   0.574E-02    0.868E-03
DAV:   5    -0.623557926324E+02    0.14484E-05   -0.61619E-06 35604   0.403E-02    0.241E-03
DAV:   6    -0.623557926242E+02    0.81345E-08   -0.12488E-06 24048   0.243E-02    0.156E-03
DAV:   7    -0.623557925892E+02    0.35052E-07   -0.37095E-07 11778   0.109E-02
  27 F= -.62355793E+02 E0= -.62355567E+02  d E =-.148234E-04
       N       E                     dE             d eps       ncg     rms          rms(c)
DAV:   1    -0.623557390570E+02    0.53567E-04   -0.42921E-02 19026   0.660E-01    0.207E-02
DAV:   2    -0.623558305871E+02   -0.91530E-04   -0.94339E-04 27204   0.153E-01    0.146E-02
DAV:   3    -0.623558279481E+02    0.26389E-05   -0.64175E-06 25650   0.287E-02    0.110E-02
DAV:   4    -0.623558267432E+02    0.12049E-05   -0.88574E-06 23088   0.709E-02    0.992E-03
DAV:   5    -0.623558251711E+02    0.15721E-05   -0.12983E-05 35580   0.673E-02    0.412E-03
DAV:   6    -0.623558250328E+02    0.13833E-06   -0.32131E-06 29820   0.368E-02    0.164E-03
DAV:   7    -0.623558249959E+02    0.36878E-07   -0.32093E-07 12312   0.891E-03
  28 F= -.62355825E+02 E0= -.62355600E+02  d E =-.324068E-04
       N       E                     dE             d eps       ncg     rms          rms(c)
DAV:   1    -0.623560565995E+02   -0.23157E-03   -0.52218E-02 19296   0.721E-01    0.201E-02
DAV:   2    -0.623561551976E+02   -0.98598E-04   -0.10136E-03 27210   0.167E-01    0.161E-02
DAV:   3    -0.623561527085E+02    0.24891E-05   -0.16032E-05 22416   0.692E-02    0.128E-02
DAV:   4    -0.623561515638E+02    0.11447E-05   -0.12612E-05 22608   0.743E-02    0.112E-02
DAV:   5    -0.623561494422E+02    0.21216E-05   -0.15312E-05 36732   0.642E-02    0.703E-03
DAV:   6    -0.623561487685E+02    0.67367E-06   -0.39753E-06 25356   0.512E-02    0.208E-03
DAV:   7    -0.623561487695E+02   -0.10587E-08   -0.70124E-07 22578   0.855E-03
  29 F= -.62356149E+02 E0= -.62355925E+02  d E =-.323774E-03
       N       E                     dE             d eps       ncg     rms          rms(c)
DAV:   1    -0.623563429302E+02   -0.19416E-03   -0.60686E-02 19230   0.778E-01    0.223E-02
DAV:   2    -0.623564614196E+02   -0.11849E-03   -0.12192E-03 27402   0.183E-01    0.176E-02
DAV:   3    -0.623564585812E+02    0.28384E-05   -0.18046E-05 21852   0.762E-02    0.140E-02
DAV:   4    -0.623564572627E+02    0.13185E-05   -0.12891E-05 21888   0.782E-02    0.121E-02
DAV:   5    -0.623564550519E+02    0.22107E-05   -0.19543E-05 35988   0.694E-02    0.711E-03
DAV:   6    -0.623564541510E+02    0.90096E-06   -0.68658E-06 28200   0.584E-02    0.275E-03
DAV:   7    -0.623564541283E+02    0.22716E-07   -0.10746E-06 28002   0.136E-02    0.174E-03
DAV:   8    -0.623564540972E+02    0.31072E-07   -0.13776E-07 10368   0.519E-03
  30 F= -.62356454E+02 E0= -.62356232E+02  d E =-.305328E-03
       N       E                     dE             d eps       ncg     rms          rms(c)
DAV:   1    -0.623564914900E+02   -0.37362E-04   -0.58985E-02 19116   0.772E-01    0.253E-02
DAV:   2    -0.623566214585E+02   -0.12997E-03   -0.13456E-03 28104   0.221E-01    0.225E-02
DAV:   3    -0.623566212412E+02    0.21730E-06   -0.10648E-04 21528   0.197E-01    0.183E-02
DAV:   4    -0.623566176588E+02    0.35824E-05   -0.26457E-05 22560   0.977E-02    0.116E-02
DAV:   5    -0.623566159352E+02    0.17237E-05   -0.14708E-05 36528   0.670E-02    0.753E-03
DAV:   6    -0.623566151289E+02    0.80631E-06   -0.62919E-06 24312   0.658E-02    0.211E-03
DAV:   7    -0.623566151882E+02   -0.59332E-07   -0.13355E-06 24264   0.132E-02    0.143E-03
DAV:   8    -0.623566151749E+02    0.13286E-07   -0.21670E-07 12024   0.815E-03
  31 F= -.62356615E+02 E0= -.62356394E+02  d E =-.161078E-03
       N       E                     dE             d eps       ncg     rms          rms(c)
DAV:   1    -0.623565752030E+02    0.39985E-04   -0.14777E-02 19344   0.382E-01    0.115E-02
DAV:   2    -0.623566049956E+02   -0.29793E-04   -0.31995E-04 29580   0.144E-01    0.152E-02
DAV:   3    -0.623566042566E+02    0.73902E-06   -0.47023E-05 21252   0.124E-01    0.842E-03
DAV:   4    -0.623566038338E+02    0.42275E-06   -0.72749E-06 21810   0.413E-02    0.564E-03
DAV:   5    -0.623566035860E+02    0.24783E-06   -0.29754E-06 24126   0.396E-02    0.490E-03
DAV:   6    -0.623566032793E+02    0.30672E-06   -0.25844E-06 24594   0.368E-02    0.145E-03
DAV:   7    -0.623566032964E+02   -0.17149E-07   -0.60883E-07 19644   0.997E-03
  32 F= -.62356603E+02 E0= -.62356383E+02  d E =0.118785E-04
       N       E                     dE             d eps       ncg     rms          rms(c)
DAV:   1    -0.623565474567E+02    0.55823E-04   -0.18159E-03 18714   0.136E-01    0.644E-03
DAV:   2    -0.623565535036E+02   -0.60470E-05   -0.62093E-05 27642   0.516E-02    0.493E-03
DAV:   3    -0.623565536236E+02   -0.11991E-06   -0.71106E-06 21864   0.533E-02    0.432E-03
DAV:   4    -0.623565534258E+02    0.19774E-06   -0.18217E-06 21432   0.249E-02    0.214E-03
DAV:   5    -0.623565534276E+02   -0.18190E-08   -0.40329E-07 15336   0.140E-02
  33 F= -.62356553E+02 E0= -.62356332E+02  d E =0.498688E-04
       N       E                     dE             d eps       ncg     rms          rms(c)
DAV:   1    -0.623563032804E+02    0.25015E-03   -0.33244E-03 18702   0.182E-01    0.937E-03
DAV:   2    -0.623563154615E+02   -0.12181E-04   -0.12555E-04 27696   0.518E-02    0.498E-03
DAV:   3    -0.623563154869E+02   -0.25393E-07   -0.40257E-06 22188   0.406E-02    0.452E-03
DAV:   4    -0.623563153215E+02    0.16532E-06   -0.11557E-06 21396   0.230E-02    0.282E-03
DAV:   5    -0.623563152961E+02    0.25455E-07   -0.89614E-07 17856   0.191E-02
  34 F= -.62356315E+02 E0= -.62356094E+02  d E =0.238132E-03
       N       E                     dE             d eps       ncg     rms          rms(c)
DAV:   1    -0.623558298113E+02    0.48551E-03   -0.63923E-03 18696   0.249E-01    0.134E-02
DAV:   2    -0.623558544855E+02   -0.24674E-04   -0.25494E-04 26964   0.666E-02    0.619E-03
DAV:   3    -0.623558544260E+02    0.59415E-07   -0.45291E-06 22452   0.336E-02    0.515E-03
DAV:   4    -0.623558542493E+02    0.17678E-06   -0.82035E-07 22140   0.233E-02    0.359E-03
DAV:   5    -0.623558540545E+02    0.19480E-06   -0.80667E-07 21804   0.767E-03    0.104E-03
DAV:   6    -0.623558540755E+02   -0.20980E-07   -0.41399E-07 19590   0.947E-03
  35 F= -.62355854E+02 E0= -.62355633E+02  d E =0.461221E-03
       N       E                     dE             d eps       ncg     rms          rms(c)
DAV:   1    -0.623550943249E+02    0.75973E-03   -0.10706E-02 18696   0.324E-01    0.170E-02
DAV:   2    -0.623551351436E+02   -0.40819E-04   -0.42344E-04 26358   0.945E-02    0.866E-03
DAV:   3    -0.623551354770E+02   -0.33340E-06   -0.16131E-05 23004   0.752E-02    0.805E-03
DAV:   4    -0.623551349223E+02    0.55474E-06   -0.38958E-06 23616   0.424E-02    0.512E-03
DAV:   5    -0.623551347831E+02    0.13916E-06   -0.26733E-06 26304   0.324E-02    0.435E-03
DAV:   6    -0.623551345138E+02    0.26934E-06   -0.21498E-06 27330   0.276E-02    0.128E-03
DAV:   7    -0.623551345152E+02   -0.13679E-08   -0.37783E-07 16734   0.749E-03
  36 F= -.62355135E+02 E0= -.62354914E+02  d E =0.719560E-03
       N       E                     dE             d eps       ncg     rms          rms(c)
DAV:   1    -0.623541000270E+02    0.10345E-02   -0.17140E-02 18696   0.407E-01    0.219E-02
DAV:   2    -0.623541669044E+02   -0.66877E-04   -0.69388E-04 26142   0.121E-01    0.113E-02
DAV:   3    -0.623541673089E+02   -0.40449E-06   -0.24319E-05 22788   0.943E-02    0.101E-02
DAV:   4    -0.623541665115E+02    0.79745E-06   -0.42046E-06 23256   0.485E-02    0.642E-03
DAV:   5    -0.623541662896E+02    0.22182E-06   -0.53506E-06 32112   0.386E-02    0.526E-03
DAV:   6    -0.623541658628E+02    0.42688E-06   -0.46579E-06 27096   0.397E-02    0.171E-03
DAV:   7    -0.623541658639E+02   -0.10987E-08   -0.62182E-07 22572   0.117E-02
  37 F= -.62354166E+02 E0= -.62353947E+02  d E =0.968651E-03
       N       E                     dE             d eps       ncg     rms          rms(c)
DAV:   1    -0.623532320431E+02    0.93382E-03   -0.22452E-02 18708   0.478E-01    0.224E-02
DAV:   2    -0.623533068393E+02   -0.74796E-04   -0.77745E-04 26838   0.132E-01    0.124E-02
DAV:   3    -0.623533066376E+02    0.20175E-06   -0.23537E-05 22884   0.913E-02    0.106E-02
DAV:   4    -0.623533058195E+02    0.81810E-06   -0.68750E-06 24012   0.570E-02    0.733E-03
DAV:   5    -0.623533053292E+02    0.49032E-06   -0.55819E-06 32724   0.367E-02    0.546E-03
DAV:   6    -0.623533048506E+02    0.47853E-06   -0.40063E-06 28464   0.389E-02    0.235E-03
DAV:   7    -0.623533048332E+02    0.17437E-07   -0.90401E-07 25206   0.156E-02
  38 F= -.62353305E+02 E0= -.62353087E+02  d E =0.861031E-03
       N       E                     dE             d eps       ncg     rms          rms(c)
DAV:   1    -0.623527827694E+02    0.52208E-03   -0.25052E-02 18798   0.508E-01    0.188E-02
DAV:   2    -0.623528471462E+02   -0.64377E-04   -0.66456E-04 26976   0.125E-01    0.116E-02
DAV:   3    -0.623528456994E+02    0.14468E-05   -0.63655E-06 22524   0.377E-02    0.871E-03
DAV:   4    -0.623528452967E+02    0.40278E-06   -0.68068E-06 22686   0.548E-02    0.802E-03
DAV:   5    -0.623528443770E+02    0.91970E-06   -0.83413E-06 36276   0.536E-02    0.431E-03
DAV:   6    -0.623528440983E+02    0.27872E-06   -0.25193E-06 28176   0.370E-02    0.136E-03
DAV:   7    -0.623528440901E+02    0.81127E-08   -0.24293E-07 12168   0.816E-03
  39 F= -.62352844E+02 E0= -.62352628E+02  d E =0.460743E-03
       N       E                     dE             d eps       ncg     rms          rms(c)
DAV:   1    -0.623530726762E+02   -0.22858E-03   -0.21684E-02 19596   0.467E-01    0.135E-02
DAV:   2    -0.623531135862E+02   -0.40910E-04   -0.42674E-04 28464   0.126E-01    0.125E-02
DAV:   3    -0.623531131014E+02    0.48479E-06   -0.23616E-05 20946   0.968E-02    0.998E-03
DAV:   4    -0.623531122334E+02    0.86807E-06   -0.53586E-06 21828   0.431E-02    0.698E-03
DAV:   5    -0.623531117854E+02    0.44800E-06   -0.57454E-06 29448   0.474E-02    0.612E-03
DAV:   6    -0.623531110603E+02    0.72513E-06   -0.45503E-06 33816   0.427E-02    0.149E-03
DAV:   7    -0.623531110595E+02    0.80036E-09   -0.47059E-07 19068   0.865E-03
  40 F= -.62353111E+02 E0= -.62352897E+02  d E =-.266969E-03
       N       E                     dE             d eps       ncg     rms          rms(c)
DAV:   1    -0.623532656851E+02   -0.15462E-03   -0.84023E-03 19188   0.292E-01    0.998E-03
DAV:   2    -0.623532854523E+02   -0.19767E-04   -0.20667E-04 28506   0.115E-01    0.117E-02
DAV:   3    -0.623532852238E+02    0.22856E-06   -0.32214E-05 21276   0.106E-01    0.702E-03
DAV:   4    -0.623532848599E+02    0.36388E-06   -0.53371E-06 21822   0.368E-02    0.430E-03
DAV:   5    -0.623532847933E+02    0.66644E-07   -0.20142E-06 23646   0.320E-02    0.370E-03
DAV:   6    -0.623532846357E+02    0.15751E-06   -0.15618E-06 23268   0.287E-02    0.898E-04
DAV:   7    -0.623532846475E+02   -0.11740E-07   -0.29959E-07 13494   0.784E-03
  41 F= -.62353285E+02 E0= -.62353070E+02  d E =-.173588E-03
       N       E                     dE             d eps       ncg     rms          rms(c)
DAV:   1    -0.623533016184E+02   -0.16983E-04   -0.20928E-04 19074   0.464E-02    0.189E-03
DAV:   2    -0.623533021462E+02   -0.52786E-06   -0.62153E-06 28980   0.203E-02    0.197E-03
DAV:   3    -0.623533021316E+02    0.14588E-07   -0.90754E-07 20172   0.188E-02
  42 F= -.62353302E+02 E0= -.62353088E+02  d E =-.174841E-04
