 vasp.5.4.4.18Apr17-6-g9f103f2a35 (build Jun 16 2022 14:25:58) complex          
  
 executed on             LinuxIFC date 2025.05.15  00:01:46
 running on   48 total cores
 each image running on   24 cores
 distrk:  each k-point on   24 cores,    1 groups
 distr:  one band on NCORES_PER_BAND=   4 cores,    6 groups


--------------------------------------------------------------------------------------------------------


 INCAR:
 POTCAR:    PAW_PBE Cu 22Jun2005                  
 POTCAR:    PAW_PBE O 08Apr2002                   
 POTCAR:    PAW_PBE Cu 22Jun2005                  
   VRHFIN =Cu: d10 p1                                                           
   LEXCH  = PE                                                                  
   EATOM  =  1390.9808 eV,  102.2342 Ry                                         
                                                                                
   TITEL  = PAW_PBE Cu 22Jun2005                                                
   LULTRA =        F    use ultrasoft PP ?                                      
   IUNSCR =        1    unscreen: 0-lin 1-nonlin 2-no                           
   RPACOR =    2.000    partial core radius                                     
   POMASS =   63.546; ZVAL   =   11.000    mass and valenz                      
   RCORE  =    2.300    outmost cutoff radius                                   
   RWIGS  =    2.200; RWIGS  =    1.164    wigner-seitz radius (au A)           
   ENMAX  =  295.446; ENMIN  =  221.585 eV                                      
   ICORE  =        3    local potential                                         
   LCOR   =        T    correct aug charges                                     
   LPAW   =        T    paw PP                                                  
   EAUG   =  586.980                                                            
   DEXC   =    0.000                                                            
   RMAX   =    2.344    core radius for proj-oper                               
   RAUG   =    1.300    factor for augmentation sphere                          
   RDEP   =    2.302    radius for radial grids                                 
   RDEPT  =    1.771    core radius for aug-charge                              
                                                                                
   Atomic configuration                                                         
    9 entries                                                                   
     n  l   j            E        occ.                                          
     1  0  0.50     -8850.2468   2.0000                                         
     2  0  0.50     -1062.3498   2.0000                                         
     2  1  1.50      -916.8226   6.0000                                         
     3  0  0.50      -114.6929   2.0000                                         
     3  1  1.50       -72.1325   6.0000                                         
     3  2  2.50        -5.0394  10.0000                                         
     4  0  0.50        -4.6097   1.0000                                         
     4  1  0.50        -4.0817   0.0000                                         
     4  3  2.50        -1.3606   0.0000                                         
   Description                                                                  
     l       E           TYP  RCUT    TYP  RCUT                                 
     2     -5.0393973     23  2.200                                             
     2     10.8846608     23  2.200                                             
     0     -4.6097109     23  2.200                                             
     0      8.2520465     23  2.200                                             
     1     -2.7211652     23  2.200                                             
     1     21.7055443     23  2.200                                             
     3      2.7211652     23  2.300                                             
  local pseudopotential read in
  partial core-charges read in
  partial kinetic energy density read in
  atomic valenz-charges read in
  non local Contribution for L=           2  read in
    real space projection operators read in
  non local Contribution for L=           2  read in
    real space projection operators read in
  non local Contribution for L=           0  read in
    real space projection operators read in
  non local Contribution for L=           0  read in
    real space projection operators read in
  non local Contribution for L=           1  read in
    real space projection operators read in
  non local Contribution for L=           1  read in
    real space projection operators read in
    PAW grid and wavefunctions read in
 
   number of l-projection  operators is LMAX  =           6
   number of lm-projection operators is LMMAX =          18
 
 POTCAR:    PAW_PBE O 08Apr2002                   
   VRHFIN =O: s2p4                                                              
   LEXCH  = PE                                                                  
   EATOM  =   432.3788 eV,   31.7789 Ry                                         
                                                                                
   TITEL  = PAW_PBE O 08Apr2002                                                 
   LULTRA =        F    use ultrasoft PP ?                                      
   IUNSCR =        1    unscreen: 0-lin 1-nonlin 2-no                           
   RPACOR =    1.200    partial core radius                                     
   POMASS =   16.000; ZVAL   =    6.000    mass and valenz                      
   RCORE  =    1.520    outmost cutoff radius                                   
   RWIGS  =    1.550; RWIGS  =    0.820    wigner-seitz radius (au A)           
   ENMAX  =  400.000; ENMIN  =  300.000 eV                                      
   ICORE  =        2    local potential                                         
   LCOR   =        T    correct aug charges                                     
   LPAW   =        T    paw PP                                                  
   EAUG   =  605.392                                                            
   DEXC   =    0.000                                                            
   RMAX   =    1.553    core radius for proj-oper                               
   RAUG   =    1.300    factor for augmentation sphere                          
   RDEP   =    1.550    radius for radial grids                                 
   RDEPT  =    1.329    core radius for aug-charge                              
                                                                                
   Atomic configuration                                                         
    4 entries                                                                   
     n  l   j            E        occ.                                          
     1  0  0.50      -514.6923   2.0000                                         
     2  0  0.50       -23.9615   2.0000                                         
     2  1  0.50        -9.0305   4.0000                                         
     3  2  1.50        -9.5241   0.0000                                         
   Description                                                                  
     l       E           TYP  RCUT    TYP  RCUT                                 
     0    -23.9615318     23  1.200                                             
     0     -9.5240782     23  1.200                                             
     1     -9.0304911     23  1.520                                             
     1      8.1634956     23  1.520                                             
     2     -9.5240782      7  1.500                                             
  local pseudopotential read in
  partial core-charges read in
  partial kinetic energy density read in
  kinetic energy density of atom read in
  atomic valenz-charges read in
  non local Contribution for L=           0  read in
    real space projection operators read in
  non local Contribution for L=           0  read in
    real space projection operators read in
  non local Contribution for L=           1  read in
    real space projection operators read in
  non local Contribution for L=           1  read in
    real space projection operators read in
    PAW grid and wavefunctions read in
 
   number of l-projection  operators is LMAX  =           4
   number of lm-projection operators is LMMAX =           8
 
 Optimization of the real space projectors (new method)

 maximal supplied QI-value         = 16.25
 optimisation between [QCUT,QGAM] = [ 11.38, 22.75] = [ 36.24,144.96] Ry 
 Optimized for a Real-space Cutoff    1.52 Angstroem

   l    n(q)    QCUT    max X(q) W(low)/X(q) W(high)/X(q)  e(spline) 
   2      9    11.376     4.610    0.21E-03    0.10E-03    0.26E-06
   2      9    11.376     8.522    0.33E-03    0.16E-03    0.37E-06
   0     10    11.376    51.609    0.62E-04    0.20E-04    0.13E-06
   0     10    11.376    27.747    0.54E-04    0.20E-04    0.13E-06
   1     10    11.376    20.408    0.13E-04    0.99E-04    0.19E-06
   1     10    11.376    13.425    0.12E-04    0.87E-04    0.17E-06
 Optimization of the real space projectors (new method)

 maximal supplied QI-value         = 24.76
 optimisation between [QCUT,QGAM] = [ 11.39, 22.77] = [ 36.31,145.25] Ry 
 Optimized for a Real-space Cutoff    1.00 Angstroem

   l    n(q)    QCUT    max X(q) W(low)/X(q) W(high)/X(q)  e(spline) 
   0      7    11.387    20.381    0.39E-03    0.13E-02    0.15E-06
   0      7    11.387    15.268    0.42E-03    0.14E-02    0.17E-06
   1      6    11.387     5.964    0.41E-03    0.11E-02    0.17E-06
   1      6    11.387     5.382    0.39E-03    0.87E-03    0.15E-06
  PAW_PBE Cu 22Jun2005                  :
 energy of atom  1       EATOM=-1390.9808
 kinetic energy error for atom=    0.0043 (will be added to EATOM!!)
  PAW_PBE O 08Apr2002                   :
 energy of atom  2       EATOM= -432.3788
 kinetic energy error for atom=    0.0224 (will be added to EATOM!!)
 
 
 POSCAR: Cu   O                                  
  positions in direct lattice
  velocities in cartesian coordinates
 exchange correlation table for  LEXCH =        8
   RHO(1)=    0.500       N(1)  =     2000
   RHO(2)=  100.500       N(2)  =     4000

 VTST: version 3.2, (02/03/18)

 CHAIN: initializing optimizer
 
 OPT: Using Quick-Min optimizer
 OPT: QM, Init
 OPT: QM, MAXMOVE       0.200000
 OPT: QM, TIMESTEP      0.100000
 
 CHAIN: Read ICHAIN            0
 CHAIN: Running the NEB
 NEB:          SPRING     -5.000000
 NEB:          LCLIMB      T
 NEB:     LTANGENTOLD      F
 NEB:           LDNEB      F
 NEB:        LDNEBORG      F
 NEB:        LNEBCELL      F
 NEB:          EFIRST      0.000000
 NEB:           ELAST      0.000000
 
 POSCAR: Cu   O                                  
  positions in direct lattice
  No initial velocities read in
 
 POSCAR: Cu   O                                  
  positions in direct lattice
  No initial velocities read in
 


--------------------------------------------------------------------------------------------------------


 ion  position               nearest neighbor table
   1  0.000  0.000  0.000-   5 2.56   8 2.56  13 2.56  12 2.56  12 2.56   9 2.56   9 2.56   4 2.56
                             4 2.56
   2  0.833  0.667  0.281-   3 2.47  15 2.48   6 2.54  10 2.54  14 2.56  14 2.56  10 2.58   6 2.58
                             8 2.58   5 2.58  16 2.58   7 2.66
   3  0.521  0.516  0.417-  17 1.86  15 2.37   2 2.47  11 2.52   7 2.56   7 2.56   6 2.58  11 2.60
                            14 2.61  15 2.74
   4  0.500  0.500  0.000-  16 2.56  13 2.56   8 2.56   9 2.56   9 2.56  12 2.56  12 2.56   1 2.56
                             1 2.56
   5  0.167  0.833  0.139-  14 2.54   6 2.55   1 2.56  12 2.56   9 2.56   8 2.56   8 2.56  13 2.56
                            13 2.56  16 2.56  16 2.56   2 2.58
   6  0.331  0.671  0.279-  11 2.53   2 2.54  10 2.55   5 2.55  14 2.55  14 2.56   8 2.57  10 2.57
                            13 2.57   2 2.58   3 2.58   7 2.62
   7  0.008  0.492  0.425-  17 2.03   3 2.56  15 2.56  15 2.56   3 2.56  11 2.57  11 2.57   6 2.62
                            10 2.62   2 2.66
   8  0.667  0.833  0.139-  12 2.56   1 2.56   4 2.56   5 2.56   5 2.56  16 2.56  16 2.56  13 2.56
                            13 2.56   6 2.57  10 2.57   2 2.58
   9  0.000  0.500  0.000-  13 2.56  16 2.56   5 2.56   4 2.56   4 2.56   1 2.56   1 2.56  12 2.56
                            12 2.56
  10  0.829  0.169  0.279-  11 2.53   2 2.54   6 2.55  16 2.55  14 2.55  14 2.56   8 2.57   6 2.57
                            13 2.57   2 2.58  15 2.58   7 2.62
  11  0.491  0.009  0.414-  15 2.52   3 2.52  14 2.52  10 2.53   6 2.53   7 2.57   7 2.57   3 2.60
                            15 2.60
  12  0.500  0.000  0.000-   8 2.56   5 2.56  16 2.56   1 2.56   1 2.56   4 2.56   4 2.56   9 2.56
                             9 2.56
  13  0.167  0.333  0.139-  14 2.51   9 2.56   4 2.56   1 2.56  16 2.56  16 2.56   5 2.56   5 2.56
                             8 2.56   8 2.56   6 2.57  10 2.57
  14  0.329  0.171  0.276-  13 2.51  11 2.52  16 2.54   5 2.54   6 2.55  10 2.55   2 2.56   2 2.56
                            10 2.56   6 2.56  15 2.61   3 2.61
  15  0.984  0.979  0.417-  17 1.86   3 2.37   2 2.48  11 2.52   7 2.56   7 2.56  10 2.58  11 2.60
                            14 2.61   3 2.74
  16  0.667  0.333  0.139-  14 2.54  10 2.55   4 2.56   9 2.56  12 2.56  13 2.56  13 2.56   8 2.56
                             8 2.56   5 2.56   5 2.56   2 2.58
  17  0.204  0.296  0.496-   3 1.86  15 1.86   7 2.03
 

IMPORTANT INFORMATION: All symmetrisations will be switched off!
NOSYMM: (Re-)initialisation of all symmetry stuff for point group C_1.

 
 
 KPOINTS: K-Spacing Value to Generate K-Mesh: 0.04

Automatic generation of k-mesh.
Space group operators:
 irot       det(A)        alpha          n_x          n_y          n_z        tau_x        tau_y        tau_z
    1     1.000000     0.000000     1.000000     0.000000     0.000000     0.000000     0.000000     0.000000
 
 Subroutine IBZKPT returns following result:
 ===========================================
 
 Found     82 irreducible k-points:
 
 Following reciprocal coordinates:
            Coordinates               Weight
  0.000000  0.000000  0.000000      1.000000
  0.111111  0.000000  0.000000      2.000000
  0.222222  0.000000  0.000000      2.000000
  0.333333  0.000000  0.000000      2.000000
  0.444444  0.000000  0.000000      2.000000
 -0.000000  0.111111  0.000000      2.000000
  0.111111  0.111111  0.000000      2.000000
  0.222222  0.111111  0.000000      2.000000
  0.333333  0.111111  0.000000      2.000000
  0.444444  0.111111  0.000000      2.000000
 -0.444444  0.111111  0.000000      2.000000
 -0.333333  0.111111  0.000000      2.000000
 -0.222222  0.111111  0.000000      2.000000
 -0.111111  0.111111  0.000000      2.000000
  0.000000  0.222222  0.000000      2.000000
  0.111111  0.222222  0.000000      2.000000
  0.222222  0.222222  0.000000      2.000000
  0.333333  0.222222  0.000000      2.000000
  0.444444  0.222222  0.000000      2.000000
 -0.444444  0.222222  0.000000      2.000000
 -0.333333  0.222222  0.000000      2.000000
 -0.222222  0.222222  0.000000      2.000000
 -0.111111  0.222222  0.000000      2.000000
  0.000000  0.333333  0.000000      2.000000
  0.111111  0.333333  0.000000      2.000000
  0.222222  0.333333  0.000000      2.000000
  0.333333  0.333333  0.000000      2.000000
  0.444444  0.333333  0.000000      2.000000
 -0.444444  0.333333  0.000000      2.000000
 -0.333333  0.333333  0.000000      2.000000
 -0.222222  0.333333  0.000000      2.000000
 -0.111111  0.333333  0.000000      2.000000
  0.000000  0.444444  0.000000      2.000000
  0.111111  0.444444  0.000000      2.000000
  0.222222  0.444444  0.000000      2.000000
  0.333333  0.444444  0.000000      2.000000
  0.444444  0.444444  0.000000      2.000000
 -0.444444  0.444444  0.000000      2.000000
 -0.333333  0.444444  0.000000      2.000000
 -0.222222  0.444444  0.000000      2.000000
 -0.111111  0.444444  0.000000      2.000000
  0.000000  0.000000  0.500000      1.000000
  0.111111  0.000000  0.500000      2.000000
  0.222222  0.000000  0.500000      2.000000
  0.333333  0.000000  0.500000      2.000000
  0.444444  0.000000  0.500000      2.000000
 -0.000000  0.111111  0.500000      2.000000
  0.111111  0.111111  0.500000      2.000000
  0.222222  0.111111  0.500000      2.000000
  0.333333  0.111111  0.500000      2.000000
  0.444444  0.111111  0.500000      2.000000
 -0.444444  0.111111  0.500000      2.000000
 -0.333333  0.111111  0.500000      2.000000
 -0.222222  0.111111  0.500000      2.000000
 -0.111111  0.111111  0.500000      2.000000
  0.000000  0.222222  0.500000      2.000000
  0.111111  0.222222  0.500000      2.000000
  0.222222  0.222222  0.500000      2.000000
  0.333333  0.222222  0.500000      2.000000
  0.444444  0.222222  0.500000      2.000000
 -0.444444  0.222222  0.500000      2.000000
 -0.333333  0.222222  0.500000      2.000000
 -0.222222  0.222222  0.500000      2.000000
 -0.111111  0.222222  0.500000      2.000000
  0.000000  0.333333  0.500000      2.000000
  0.111111  0.333333  0.500000      2.000000
  0.222222  0.333333  0.500000      2.000000
  0.333333  0.333333  0.500000      2.000000
  0.444444  0.333333  0.500000      2.000000
 -0.444444  0.333333  0.500000      2.000000
 -0.333333  0.333333  0.500000      2.000000
 -0.222222  0.333333  0.500000      2.000000
 -0.111111  0.333333  0.500000      2.000000
  0.000000  0.444444  0.500000      2.000000
  0.111111  0.444444  0.500000      2.000000
  0.222222  0.444444  0.500000      2.000000
  0.333333  0.444444  0.500000      2.000000
  0.444444  0.444444  0.500000      2.000000
 -0.444444  0.444444  0.500000      2.000000
 -0.333333  0.444444  0.500000      2.000000
 -0.222222  0.444444  0.500000      2.000000
 -0.111111  0.444444  0.500000      2.000000
 
 Following cartesian coordinates:
            Coordinates               Weight
  0.000000  0.000000  0.000000      1.000000
  0.025098  0.000000  0.000000      2.000000
  0.050196  0.000000  0.000000      2.000000
  0.075294  0.000000  0.000000      2.000000
  0.100392  0.000000  0.000000      2.000000
  0.012549  0.021736  0.000000      2.000000
  0.037647  0.021736  0.000000      2.000000
  0.062745  0.021736  0.000000      2.000000
  0.087843  0.021736  0.000000      2.000000
  0.112941  0.021736  0.000000      2.000000
 -0.087843  0.021736  0.000000      2.000000
 -0.062745  0.021736  0.000000      2.000000
 -0.037647  0.021736  0.000000      2.000000
 -0.012549  0.021736  0.000000      2.000000
  0.025098  0.043471  0.000000      2.000000
  0.050196  0.043471  0.000000      2.000000
  0.075294  0.043471  0.000000      2.000000
  0.100392  0.043471  0.000000      2.000000
  0.125490  0.043471  0.000000      2.000000
 -0.075294  0.043471  0.000000      2.000000
 -0.050196  0.043471  0.000000      2.000000
 -0.025098  0.043471  0.000000      2.000000
  0.000000  0.043471  0.000000      2.000000
  0.037647  0.065207  0.000000      2.000000
  0.062745  0.065207  0.000000      2.000000
  0.087843  0.065207  0.000000      2.000000
  0.112941  0.065207  0.000000      2.000000
  0.138039  0.065207  0.000000      2.000000
 -0.062745  0.065207  0.000000      2.000000
 -0.037647  0.065207  0.000000      2.000000
 -0.012549  0.065207  0.000000      2.000000
  0.012549  0.065207  0.000000      2.000000
  0.050196  0.086942  0.000000      2.000000
  0.075294  0.086942  0.000000      2.000000
  0.100392  0.086942  0.000000      2.000000
  0.125490  0.086942  0.000000      2.000000
  0.150588  0.086942  0.000000      2.000000
 -0.050196  0.086942  0.000000      2.000000
 -0.025098  0.086942  0.000000      2.000000
 -0.000000  0.086942  0.000000      2.000000
  0.025098  0.086942  0.000000      2.000000
  0.000000  0.000000  0.033333      1.000000
  0.025098  0.000000  0.033333      2.000000
  0.050196  0.000000  0.033333      2.000000
  0.075294  0.000000  0.033333      2.000000
  0.100392  0.000000  0.033333      2.000000
  0.012549  0.021736  0.033333      2.000000
  0.037647  0.021736  0.033333      2.000000
  0.062745  0.021736  0.033333      2.000000
  0.087843  0.021736  0.033333      2.000000
  0.112941  0.021736  0.033333      2.000000
 -0.087843  0.021736  0.033333      2.000000
 -0.062745  0.021736  0.033333      2.000000
 -0.037647  0.021736  0.033333      2.000000
 -0.012549  0.021736  0.033333      2.000000
  0.025098  0.043471  0.033333      2.000000
  0.050196  0.043471  0.033333      2.000000
  0.075294  0.043471  0.033333      2.000000
  0.100392  0.043471  0.033333      2.000000
  0.125490  0.043471  0.033333      2.000000
 -0.075294  0.043471  0.033333      2.000000
 -0.050196  0.043471  0.033333      2.000000
 -0.025098  0.043471  0.033333      2.000000
  0.000000  0.043471  0.033333      2.000000
  0.037647  0.065207  0.033333      2.000000
  0.062745  0.065207  0.033333      2.000000
  0.087843  0.065207  0.033333      2.000000
  0.112941  0.065207  0.033333      2.000000
  0.138039  0.065207  0.033333      2.000000
 -0.062745  0.065207  0.033333      2.000000
 -0.037647  0.065207  0.033333      2.000000
 -0.012549  0.065207  0.033333      2.000000
  0.012549  0.065207  0.033333      2.000000
  0.050196  0.086942  0.033333      2.000000
  0.075294  0.086942  0.033333      2.000000
  0.100392  0.086942  0.033333      2.000000
  0.125490  0.086942  0.033333      2.000000
  0.150588  0.086942  0.033333      2.000000
 -0.050196  0.086942  0.033333      2.000000
 -0.025098  0.086942  0.033333      2.000000
 -0.000000  0.086942  0.033333      2.000000
  0.025098  0.086942  0.033333      2.000000
 


--------------------------------------------------------------------------------------------------------




 Dimension of arrays:
   k-points           NKPTS =     82   k-points in BZ     NKDIM =     82   number of bands    NBANDS=    114
   number of dos      NEDOS =    301   number of ions     NIONS =     17
   non local maximal  LDIM  =      6   non local SUM 2l+1 LMDIM =     18
   total plane-waves  NPLWV =  65856
   max r-space proj   IRMAX =   2896   max aug-charges    IRDMAX=   5818
   dimension x,y,z NGX =    28 NGY =   28 NGZ =   84
   dimension x,y,z NGXF=    56 NGYF=   56 NGZF=  168
   support grid    NGXF=    56 NGYF=   56 NGZF=  168
   ions per type =              16   1
   NGX,Y,Z   is equivalent  to a cutoff of   9.11,  9.11,  9.31 a.u.
   NGXF,Y,Z  is equivalent  to a cutoff of  18.21, 18.21, 18.62 a.u.

 SYSTEM =  TS                                      
 POSCAR =  Cu   O                                  

 Startparameter for this run:
   NWRITE =      2    write-flag & timer
   PREC   = normal    normal or accurate (medium, high low for compatibility)
   ISTART =      0    job   : 0-new  1-cont  2-samecut
   ICHARG =      2    charge: 1-file 2-atom 10-const
   ISPIN  =      1    spin polarized calculation?
   LNONCOLLINEAR =      F non collinear calculations
   LSORBIT =      F    spin-orbit coupling
   INIWAV =      1    electr: 0-lowe 1-rand  2-diag
   LASPH  =      T    aspherical Exc in radial PAW
   METAGGA=      F    non-selfconsistent MetaGGA calc.

 Electronic Relaxation 1
   ENCUT  =  500.0 eV  36.75 Ry    6.06 a.u.   9.32  9.32 27.35*2*pi/ulx,y,z
   ENINI  =  500.0     initial cutoff
   ENAUG  =  605.4 eV  augmentation charge cutoff
   NELM   =     60;   NELMIN=  2; NELMDL=  0     # of ELM steps 
   EDIFF  = 0.1E-06   stopping-criterion for ELM
   LREAL  =      T    real-space projection
   NLSPLINE    = F    spline interpolate recip. space projectors
   LCOMPAT=      F    compatible to vasp.4.4
   GGA_COMPAT  = T    GGA compatible to vasp.4.4-vasp.4.6
   LMAXPAW     = -100 max onsite density
   LMAXMIX     =    2 max onsite mixed and CHGCAR
   VOSKOWN=      0    Vosko Wilk Nusair interpolation
   ROPT   =   -0.00050  -0.00050
 Ionic relaxation
   EDIFFG = -.1E-01   stopping-criterion for IOM
   NSW    =    400    number of steps for IOM
   NBLOCK =      1;   KBLOCK =    400    inner block; outer block 
   IBRION =      3    ionic relax: 0-MD 1-quasi-New 2-CG
   NFREE  =      0    steps in history (QN), initial steepest desc. (CG)
   ISIF   =      2    stress and relaxation
   IWAVPR =     11    prediction:  0-non 1-charg 2-wave 3-comb
   ISYM   =      0    0-nonsym 1-usesym 2-fastsym
   LCORR  =      T    Harris-Foulkes like correction to forces

   POTIM  = 0.0000    time-step for ionic-motion
   TEIN   =    0.0    initial temperature
   TEBEG  =    0.0;   TEEND  =   0.0 temperature during run
   SMASS  =  -3.00    Nose mass-parameter (am)
   estimated Nose-frequenzy (Omega)   =  0.10E-29 period in steps =  0.00 mass=  -0.597E-27a.u.
   SCALEE = 1.0000    scale energy and forces
   NPACO  =    256;   APACO  = 16.0  distance and # of slots for P.C.
   PSTRESS=    0.0 pullay stress

  Mass of Ions in am
   POMASS =  63.55 16.00
  Ionic Valenz
   ZVAL   =  11.00  6.00
  Atomic Wigner-Seitz radii
   RWIGS  =  -1.00 -1.00
  virtual crystal weights 
   VCA    =   1.00  1.00
   NELECT =     182.0000    total number of electrons
   NUPDOWN=      -1.0000    fix difference up-down

 DOS related values:
   EMIN   =  10.00;   EMAX   =-10.00  energy-range for DOS
   EFERMI =   0.00
   ISMEAR =     0;   SIGMA  =   0.01  broadening in eV -4-tet -1-fermi 0-gaus

 Electronic relaxation 2 (details)
   IALGO  =     38    algorithm
   LDIAG  =      T    sub-space diagonalisation (order eigenvalues)
   LSUBROT=      F    optimize rotation matrix (better conditioning)
   TURBO    =      0    0=normal 1=particle mesh
   IRESTART =      0    0=no restart 2=restart with 2 vectors
   NREBOOT  =      0    no. of reboots
   NMIN     =      0    reboot dimension
   EREF     =   0.00    reference energy to select bands
   IMIX   =      4    mixing-type and parameters
     AMIX     =   0.40;   BMIX     =  1.00
     AMIX_MAG =   1.60;   BMIX_MAG =  1.00
     AMIN     =   0.10
     WC   =   100.;   INIMIX=   1;  MIXPRE=   1;  MAXMIX= -45

 Intra band minimization:
   WEIMIN = 0.0010     energy-eigenvalue tresh-hold
   EBREAK =  0.22E-09  absolut break condition
   DEPER  =   0.30     relativ break condition  

   TIME   =   0.40     timestep for ELM

  volume/ion in A,a.u.               =      19.97       134.75
  Fermi-wavevector in a.u.,A,eV,Ry     =   1.329943  2.513229 24.065297  1.768749
  Thomas-Fermi vector in A             =   2.459068
 
 Write flags
   LWAVE        =      F    write WAVECAR
   LDOWNSAMPLE  =      F    k-point downsampling of WAVECAR
   LCHARG       =      F    write CHGCAR
   LVTOT        =      F    write LOCPOT, total local potential
   LVHAR        =      F    write LOCPOT, Hartree potential only
   LELF         =      F    write electronic localiz. function (ELF)
   LORBIT       =      0    0 simple, 1 ext, 2 COOP (PROOUT), +10 PAW based schemes


 Dipole corrections
   LMONO  =      F    monopole corrections only (constant potential shift)
   LDIPOL =      F    correct potential (dipole corrections)
   IDIPOL =      0    1-x, 2-y, 3-z, 4-all directions 
   EPSILON=  1.0000000 bulk dielectric constant

 Exchange correlation treatment:
   GGA     =    --    GGA type
   LEXCH   =     8    internal setting for exchange type
   VOSKOWN=      0    Vosko Wilk Nusair interpolation
   LHFCALC =     F    Hartree Fock is set to
   LHFONE  =     F    Hartree Fock one center treatment
   AEXX    =    0.0000 exact exchange contribution

 Linear response parameters
   LEPSILON=     F    determine dielectric tensor
   LRPA    =     F    only Hartree local field effects (RPA)
   LNABLA  =     F    use nabla operator in PAW spheres
   LVEL    =     F    velocity operator in full k-point grid
   LINTERFAST=   F  fast interpolation
   KINTER  =     0    interpolate to denser k-point grid
   CSHIFT  =0.1000    complex shift for real part using Kramers Kronig
   OMEGAMAX=  -1.0    maximum frequency
   DEG_THRESHOLD= 0.2000000E-02 threshold for treating states as degnerate
   RTIME   =   -0.100 relaxation time in fs
  (WPLASMAI=    0.000 imaginary part of plasma frequency in eV, 0.658/RTIME)
   DFIELD  = 0.0000000 0.0000000 0.0000000 field for delta impulse in time
 
 Orbital magnetization related:
   ORBITALMAG=     F  switch on orbital magnetization
   LCHIMAG   =     F  perturbation theory with respect to B field
   DQ        =  0.001000  dq finite difference perturbation B field
   LLRAUG    =     F  two centre corrections for induced B field



--------------------------------------------------------------------------------------------------------


 quickmin algorithm: (dynamic with friction)
   using selective dynamics as specified on POSCAR
 charge density and potential will be updated during run
 non-spin polarized calculation
 Variant of blocked Davidson
 Davidson routine will perform the subspace rotation
 perform sub-space diagonalisation
    after iterative eigenvector-optimisation
 modified Broyden-mixing scheme, WC =      100.0
 initial mixing is a Kerker type mixing with AMIX =  0.4000 and BMIX =      1.0000
 Hartree-type preconditioning will be used
 using additional bands           23
 real space projection scheme for non local part
 use partial core corrections
 calculate Harris-corrections to forces 
   (improved forces if not selfconsistent)
 use gradient corrections 
 use of overlap-Matrix (Vanderbilt PP)
 Gauss-broadening in eV      SIGMA  =   0.01


--------------------------------------------------------------------------------------------------------


  energy-cutoff  :      500.00
  volume of cell :      339.47
      direct lattice vectors                 reciprocal lattice vectors
     4.427085287 -2.555978882  0.000000000     0.225882253  0.000000000  0.000000000
     0.000000000  5.111957764  0.000000000     0.112941127  0.195619770  0.000000000
     0.000000000  0.000000000 15.000000000     0.000000000  0.000000000  0.066666667

  length of vectors
     5.111957764  5.111957764 15.000000000     0.225882253  0.225882253  0.066666667


 
 k-points in units of 2pi/SCALE and weight: K-Spacing Value to Generate K-Mesh: 0.04
   0.00000000  0.00000000  0.00000000       0.006
   0.02509803  0.00000000  0.00000000       0.012
   0.05019606  0.00000000  0.00000000       0.012
   0.07529408  0.00000000  0.00000000       0.012
   0.10039211  0.00000000  0.00000000       0.012
   0.01254901  0.02173553  0.00000000       0.012
   0.03764704  0.02173553  0.00000000       0.012
   0.06274507  0.02173553  0.00000000       0.012
   0.08784310  0.02173553  0.00000000       0.012
   0.11294113  0.02173553  0.00000000       0.012
  -0.08784310  0.02173553  0.00000000       0.012
  -0.06274507  0.02173553  0.00000000       0.012
  -0.03764704  0.02173553  0.00000000       0.012
  -0.01254901  0.02173553  0.00000000       0.012
   0.02509803  0.04347106  0.00000000       0.012
   0.05019606  0.04347106  0.00000000       0.012
   0.07529408  0.04347106  0.00000000       0.012
   0.10039211  0.04347106  0.00000000       0.012
   0.12549014  0.04347106  0.00000000       0.012
  -0.07529408  0.04347106  0.00000000       0.012
  -0.05019606  0.04347106  0.00000000       0.012
  -0.02509803  0.04347106  0.00000000       0.012
   0.00000000  0.04347106  0.00000000       0.012
   0.03764704  0.06520659  0.00000000       0.012
   0.06274507  0.06520659  0.00000000       0.012
   0.08784310  0.06520659  0.00000000       0.012
   0.11294113  0.06520659  0.00000000       0.012
   0.13803915  0.06520659  0.00000000       0.012
  -0.06274507  0.06520659  0.00000000       0.012
  -0.03764704  0.06520659  0.00000000       0.012
  -0.01254901  0.06520659  0.00000000       0.012
   0.01254901  0.06520659  0.00000000       0.012
   0.05019606  0.08694212  0.00000000       0.012
   0.07529408  0.08694212  0.00000000       0.012
   0.10039211  0.08694212  0.00000000       0.012
   0.12549014  0.08694212  0.00000000       0.012
   0.15058817  0.08694212  0.00000000       0.012
  -0.05019606  0.08694212  0.00000000       0.012
  -0.02509803  0.08694212  0.00000000       0.012
  -0.00000000  0.08694212  0.00000000       0.012
   0.02509803  0.08694212  0.00000000       0.012
   0.00000000  0.00000000  0.03333333       0.006
   0.02509803  0.00000000  0.03333333       0.012
   0.05019606  0.00000000  0.03333333       0.012
   0.07529408  0.00000000  0.03333333       0.012
   0.10039211  0.00000000  0.03333333       0.012
   0.01254901  0.02173553  0.03333333       0.012
   0.03764704  0.02173553  0.03333333       0.012
   0.06274507  0.02173553  0.03333333       0.012
   0.08784310  0.02173553  0.03333333       0.012
   0.11294113  0.02173553  0.03333333       0.012
  -0.08784310  0.02173553  0.03333333       0.012
  -0.06274507  0.02173553  0.03333333       0.012
  -0.03764704  0.02173553  0.03333333       0.012
  -0.01254901  0.02173553  0.03333333       0.012
   0.02509803  0.04347106  0.03333333       0.012
   0.05019606  0.04347106  0.03333333       0.012
   0.07529408  0.04347106  0.03333333       0.012
   0.10039211  0.04347106  0.03333333       0.012
   0.12549014  0.04347106  0.03333333       0.012
  -0.07529408  0.04347106  0.03333333       0.012
  -0.05019606  0.04347106  0.03333333       0.012
  -0.02509803  0.04347106  0.03333333       0.012
   0.00000000  0.04347106  0.03333333       0.012
   0.03764704  0.06520659  0.03333333       0.012
   0.06274507  0.06520659  0.03333333       0.012
   0.08784310  0.06520659  0.03333333       0.012
   0.11294113  0.06520659  0.03333333       0.012
   0.13803915  0.06520659  0.03333333       0.012
  -0.06274507  0.06520659  0.03333333       0.012
  -0.03764704  0.06520659  0.03333333       0.012
  -0.01254901  0.06520659  0.03333333       0.012
   0.01254901  0.06520659  0.03333333       0.012
   0.05019606  0.08694212  0.03333333       0.012
   0.07529408  0.08694212  0.03333333       0.012
   0.10039211  0.08694212  0.03333333       0.012
   0.12549014  0.08694212  0.03333333       0.012
   0.15058817  0.08694212  0.03333333       0.012
  -0.05019606  0.08694212  0.03333333       0.012
  -0.02509803  0.08694212  0.03333333       0.012
  -0.00000000  0.08694212  0.03333333       0.012
   0.02509803  0.08694212  0.03333333       0.012
 
 k-points in reciprocal lattice and weights: K-Spacing Value to Generate K-Mesh: 0.04
   0.00000000  0.00000000  0.00000000       0.006
   0.11111111  0.00000000  0.00000000       0.012
   0.22222222  0.00000000  0.00000000       0.012
   0.33333333  0.00000000  0.00000000       0.012
   0.44444444  0.00000000  0.00000000       0.012
  -0.00000000  0.11111111  0.00000000       0.012
   0.11111111  0.11111111  0.00000000       0.012
   0.22222222  0.11111111  0.00000000       0.012
   0.33333333  0.11111111  0.00000000       0.012
   0.44444444  0.11111111  0.00000000       0.012
  -0.44444444  0.11111111  0.00000000       0.012
  -0.33333333  0.11111111  0.00000000       0.012
  -0.22222222  0.11111111  0.00000000       0.012
  -0.11111111  0.11111111  0.00000000       0.012
   0.00000000  0.22222222  0.00000000       0.012
   0.11111111  0.22222222  0.00000000       0.012
   0.22222222  0.22222222  0.00000000       0.012
   0.33333333  0.22222222  0.00000000       0.012
   0.44444444  0.22222222  0.00000000       0.012
  -0.44444444  0.22222222  0.00000000       0.012
  -0.33333333  0.22222222  0.00000000       0.012
  -0.22222222  0.22222222  0.00000000       0.012
  -0.11111111  0.22222222  0.00000000       0.012
   0.00000000  0.33333333  0.00000000       0.012
   0.11111111  0.33333333  0.00000000       0.012
   0.22222222  0.33333333  0.00000000       0.012
   0.33333333  0.33333333  0.00000000       0.012
   0.44444444  0.33333333  0.00000000       0.012
  -0.44444444  0.33333333  0.00000000       0.012
  -0.33333333  0.33333333  0.00000000       0.012
  -0.22222222  0.33333333  0.00000000       0.012
  -0.11111111  0.33333333  0.00000000       0.012
   0.00000000  0.44444444  0.00000000       0.012
   0.11111111  0.44444444  0.00000000       0.012
   0.22222222  0.44444444  0.00000000       0.012
   0.33333333  0.44444444  0.00000000       0.012
   0.44444444  0.44444444  0.00000000       0.012
  -0.44444444  0.44444444  0.00000000       0.012
  -0.33333333  0.44444444  0.00000000       0.012
  -0.22222222  0.44444444  0.00000000       0.012
  -0.11111111  0.44444444  0.00000000       0.012
   0.00000000  0.00000000  0.50000000       0.006
   0.11111111  0.00000000  0.50000000       0.012
   0.22222222  0.00000000  0.50000000       0.012
   0.33333333  0.00000000  0.50000000       0.012
   0.44444444  0.00000000  0.50000000       0.012
  -0.00000000  0.11111111  0.50000000       0.012
   0.11111111  0.11111111  0.50000000       0.012
   0.22222222  0.11111111  0.50000000       0.012
   0.33333333  0.11111111  0.50000000       0.012
   0.44444444  0.11111111  0.50000000       0.012
  -0.44444444  0.11111111  0.50000000       0.012
  -0.33333333  0.11111111  0.50000000       0.012
  -0.22222222  0.11111111  0.50000000       0.012
  -0.11111111  0.11111111  0.50000000       0.012
   0.00000000  0.22222222  0.50000000       0.012
   0.11111111  0.22222222  0.50000000       0.012
   0.22222222  0.22222222  0.50000000       0.012
   0.33333333  0.22222222  0.50000000       0.012
   0.44444444  0.22222222  0.50000000       0.012
  -0.44444444  0.22222222  0.50000000       0.012
  -0.33333333  0.22222222  0.50000000       0.012
  -0.22222222  0.22222222  0.50000000       0.012
  -0.11111111  0.22222222  0.50000000       0.012
   0.00000000  0.33333333  0.50000000       0.012
   0.11111111  0.33333333  0.50000000       0.012
   0.22222222  0.33333333  0.50000000       0.012
   0.33333333  0.33333333  0.50000000       0.012
   0.44444444  0.33333333  0.50000000       0.012
  -0.44444444  0.33333333  0.50000000       0.012
  -0.33333333  0.33333333  0.50000000       0.012
  -0.22222222  0.33333333  0.50000000       0.012
  -0.11111111  0.33333333  0.50000000       0.012
   0.00000000  0.44444444  0.50000000       0.012
   0.11111111  0.44444444  0.50000000       0.012
   0.22222222  0.44444444  0.50000000       0.012
   0.33333333  0.44444444  0.50000000       0.012
   0.44444444  0.44444444  0.50000000       0.012
  -0.44444444  0.44444444  0.50000000       0.012
  -0.33333333  0.44444444  0.50000000       0.012
  -0.22222222  0.44444444  0.50000000       0.012
  -0.11111111  0.44444444  0.50000000       0.012
 
 position of ions in fractional coordinates (direct lattice) 
   0.00000000  0.00000000  0.00000000
   0.83330510  0.66672545  0.28054318
   0.52090998  0.51587950  0.41736557
   0.50000000  0.50000000  0.00000000
   0.16666667  0.83333333  0.13912987
   0.33128708  0.67082291  0.27866713
   0.00832014  0.49175019  0.42488563
   0.66666667  0.83333333  0.13912987
   0.00000000  0.50000000  0.00000000
   0.82917529  0.16870853  0.27867125
   0.49103463  0.00902505  0.41431821
   0.50000000  0.00000000  0.00000000
   0.16666667  0.33333333  0.13912987
   0.32921137  0.17080139  0.27608720
   0.98423771  0.97921939  0.41738186
   0.66666667  0.33333333  0.13912987
   0.20407856  0.29615775  0.49602991
 
 position of ions in cartesian coordinates  (Angst):
   0.00000000  0.00000000  0.00000000
   3.68911275  1.27836209  4.20814767
   2.30611292  1.30571931  6.26048354
   2.21354264  1.27798944  0.00000000
   0.73784755  3.83396832  2.08694802
   1.46663618  2.58245561  4.18000697
   0.03683396  2.49254012  6.37328444
   2.95139019  2.55597888  2.08694802
   0.00000000  2.55597888  0.00000000
   3.67082971 -1.25692362  4.18006879
   2.17385218 -1.20893847  6.21477309
   2.21354264 -1.27798944  0.00000000
   0.73784755  1.27798944  2.08694802
   1.45744679  0.03167222  4.14130797
   4.35730428  2.49003737  6.26072789
   2.95139019  0.00000000  2.08694802
   0.90347319  0.99232543  7.44044861
 


--------------------------------------------------------------------------------------------------------


 k-point  1 :   0.0000 0.0000 0.0000  plane waves:    8599
 k-point  2 :   0.1111 0.0000 0.0000  plane waves:    8622
 k-point  3 :   0.2222 0.0000 0.0000  plane waves:    8636
 k-point  4 :   0.3333 0.0000 0.0000  plane waves:    8596
 k-point  5 :   0.4444 0.0000 0.0000  plane waves:    8616
 k-point  6 :  -0.0000 0.1111 0.0000  plane waves:    8622
 k-point  7 :   0.1111 0.1111 0.0000  plane waves:    8641
 k-point  8 :   0.2222 0.1111 0.0000  plane waves:    8628
 k-point  9 :   0.3333 0.1111 0.0000  plane waves:    8622
 k-point 10 :   0.4444 0.1111 0.0000  plane waves:    8636
 k-point 11 :  -0.4444 0.1111 0.0000  plane waves:    8622
 k-point 12 :  -0.3333 0.1111 0.0000  plane waves:    8628
 k-point 13 :  -0.2222 0.1111 0.0000  plane waves:    8641
 k-point 14 :  -0.1111 0.1111 0.0000  plane waves:    8622
 k-point 15 :   0.0000 0.2222 0.0000  plane waves:    8636
 k-point 16 :   0.1111 0.2222 0.0000  plane waves:    8628
 k-point 17 :   0.2222 0.2222 0.0000  plane waves:    8611
 k-point 18 :   0.3333 0.2222 0.0000  plane waves:    8605
 k-point 19 :   0.4444 0.2222 0.0000  plane waves:    8605
 k-point 20 :  -0.4444 0.2222 0.0000  plane waves:    8611
 k-point 21 :  -0.3333 0.2222 0.0000  plane waves:    8628
 k-point 22 :  -0.2222 0.2222 0.0000  plane waves:    8636
 k-point 23 :  -0.1111 0.2222 0.0000  plane waves:    8641
 k-point 24 :   0.0000 0.3333 0.0000  plane waves:    8596
 k-point 25 :   0.1111 0.3333 0.0000  plane waves:    8622
 k-point 26 :   0.2222 0.3333 0.0000  plane waves:    8605
 k-point 27 :   0.3333 0.3333 0.0000  plane waves:    8601
 k-point 28 :   0.4444 0.3333 0.0000  plane waves:    8605
 k-point 29 :  -0.4444 0.3333 0.0000  plane waves:    8622
 k-point 30 :  -0.3333 0.3333 0.0000  plane waves:    8596
 k-point 31 :  -0.2222 0.3333 0.0000  plane waves:    8628
 k-point 32 :  -0.1111 0.3333 0.0000  plane waves:    8628
 k-point 33 :   0.0000 0.4444 0.0000  plane waves:    8616
 k-point 34 :   0.1111 0.4444 0.0000  plane waves:    8636
 k-point 35 :   0.2222 0.4444 0.0000  plane waves:    8605
 k-point 36 :   0.3333 0.4444 0.0000  plane waves:    8605
 k-point 37 :   0.4444 0.4444 0.0000  plane waves:    8636
 k-point 38 :  -0.4444 0.4444 0.0000  plane waves:    8616
 k-point 39 :  -0.3333 0.4444 0.0000  plane waves:    8622
 k-point 40 :  -0.2222 0.4444 0.0000  plane waves:    8611
 k-point 41 :  -0.1111 0.4444 0.0000  plane waves:    8622
 k-point 42 :   0.0000 0.0000 0.5000  plane waves:    8670
 k-point 43 :   0.1111 0.0000 0.5000  plane waves:    8644
 k-point 44 :   0.2222 0.0000 0.5000  plane waves:    8638
 k-point 45 :   0.3333 0.0000 0.5000  plane waves:    8624
 k-point 46 :   0.4444 0.0000 0.5000  plane waves:    8630
 k-point 47 :  -0.0000 0.1111 0.5000  plane waves:    8644
 k-point 48 :   0.1111 0.1111 0.5000  plane waves:    8646
 k-point 49 :   0.2222 0.1111 0.5000  plane waves:    8608
 k-point 50 :   0.3333 0.1111 0.5000  plane waves:    8628
 k-point 51 :   0.4444 0.1111 0.5000  plane waves:    8592
 k-point 52 :  -0.4444 0.1111 0.5000  plane waves:    8628
 k-point 53 :  -0.3333 0.1111 0.5000  plane waves:    8608
 k-point 54 :  -0.2222 0.1111 0.5000  plane waves:    8646
 k-point 55 :  -0.1111 0.1111 0.5000  plane waves:    8644
 k-point 56 :   0.0000 0.2222 0.5000  plane waves:    8638
 k-point 57 :   0.1111 0.2222 0.5000  plane waves:    8608
 k-point 58 :   0.2222 0.2222 0.5000  plane waves:    8614
 k-point 59 :   0.3333 0.2222 0.5000  plane waves:    8586
 k-point 60 :   0.4444 0.2222 0.5000  plane waves:    8586
 k-point 61 :  -0.4444 0.2222 0.5000  plane waves:    8614
 k-point 62 :  -0.3333 0.2222 0.5000  plane waves:    8608
 k-point 63 :  -0.2222 0.2222 0.5000  plane waves:    8638
 k-point 64 :  -0.1111 0.2222 0.5000  plane waves:    8646
 k-point 65 :   0.0000 0.3333 0.5000  plane waves:    8624
 k-point 66 :   0.1111 0.3333 0.5000  plane waves:    8628
 k-point 67 :   0.2222 0.3333 0.5000  plane waves:    8586
 k-point 68 :   0.3333 0.3333 0.5000  plane waves:    8544
 k-point 69 :   0.4444 0.3333 0.5000  plane waves:    8586
 k-point 70 :  -0.4444 0.3333 0.5000  plane waves:    8628
 k-point 71 :  -0.3333 0.3333 0.5000  plane waves:    8624
 k-point 72 :  -0.2222 0.3333 0.5000  plane waves:    8608
 k-point 73 :  -0.1111 0.3333 0.5000  plane waves:    8608
 k-point 74 :   0.0000 0.4444 0.5000  plane waves:    8630
 k-point 75 :   0.1111 0.4444 0.5000  plane waves:    8592
 k-point 76 :   0.2222 0.4444 0.5000  plane waves:    8586
 k-point 77 :   0.3333 0.4444 0.5000  plane waves:    8586
 k-point 78 :   0.4444 0.4444 0.5000  plane waves:    8592
 k-point 79 :  -0.4444 0.4444 0.5000  plane waves:    8630
 k-point 80 :  -0.3333 0.4444 0.5000  plane waves:    8628
 k-point 81 :  -0.2222 0.4444 0.5000  plane waves:    8614
 k-point 82 :  -0.1111 0.4444 0.5000  plane waves:    8628

 maximum and minimum number of plane-waves per node :      2186     2102

 maximum number of plane-waves:      8670
 maximum index in each direction: 
   IXMAX=    9   IYMAX=    9   IZMAX=   27
   IXMIN=   -9   IYMIN=   -9   IZMIN=  -27


 real space projection operators:
  total allocation   :       6263.31 KBytes
  max/ min on nodes  :       1567.28       1564.05


 parallel 3D FFT for wavefunctions:
    minimum data exchange during FFTs selected (reduces bandwidth)
 parallel 3D FFT for charge:
    minimum data exchange during FFTs selected (reduces bandwidth)


 total amount of memory used by VASP MPI-rank0    93186. kBytes
=======================================================================

   base      :      30000. kBytes
   nonlr-proj:       2751. kBytes
   fftplans  :       1417. kBytes
   grid      :       2255. kBytes
   one-center:         77. kBytes
   wavefun   :      56686. kBytes
 
     INWAV:  cpu time    0.0000: real time    0.0000
 Broyden mixing: mesh for mixing (old mesh)
   NGX = 19   NGY = 19   NGZ = 55
  (NGX  = 56   NGY  = 56   NGZ  =168)
  gives a total of  19855 points

 initial charge density was supplied:
 charge density of overlapping atoms calculated
 number of electron     182.0000000 magnetization 
 keeping initial charge density in first step


--------------------------------------------------------------------------------------------------------


 Maximum index for non-local projection operator          701
 Maximum index for augmentation-charges          563 (set IRDMAX)


--------------------------------------------------------------------------------------------------------


 First call to EWALD:  gamma=   0.254
 Maximum number of real-space cells 4x 4x 2
 Maximum number of reciprocal cells 2x 2x 5

    FEWALD:  cpu time    0.0019: real time    0.0019


--------------------------------------- Iteration      1(   1)  ---------------------------------------


    POTLOK:  cpu time    0.0177: real time    0.0202
    SETDIJ:  cpu time    0.1628: real time    0.1628
     EDDAV:  cpu time    9.9337: real time    9.9346
       DOS:  cpu time    0.0036: real time    0.0036
    --------------------------------------------
      LOOP:  cpu time   10.1179: real time   10.1212

 eigenvalue-minimisations  : 18696
 total energy-change (2. order) : 0.1796844E+04  (-0.7680358E+04)
 number of electron     182.0000000 magnetization 
 augmentation part      182.0000000 magnetization 

 Free energy of the ion-electron system (eV)
  ---------------------------------------------------
  alpha Z        PSCENC =       582.73103390
  Ewald energy   TEWEN  =     14043.26313415
  -Hartree energ DENC   =    -36525.67245329
  -exchange      EXHF   =         0.00000000
  -V(xc)+E(xc)   XCENC  =       756.65252727
  PAW double counting   =     19997.85603494   -21693.12362158
  entropy T*S    EENTRO =        -0.00020756
  eigenvalues    EBANDS =      1947.15639403
  atomic energy  EATOM  =     22687.98115858
  Solvation  Ediel_sol  =         0.00000000
  ---------------------------------------------------
  free energy    TOTEN  =      1796.84400045 eV

  energy without entropy =     1796.84420800  energy(sigma->0) =     1796.84410423


--------------------------------------------------------------------------------------------------------




--------------------------------------- Iteration      1(   2)  ---------------------------------------


     EDDAV:  cpu time    9.8699: real time    9.8745
       DOS:  cpu time    0.0036: real time    0.0036
    --------------------------------------------
      LOOP:  cpu time    9.8735: real time    9.8781

 eigenvalue-minimisations  : 18696
 total energy-change (2. order) :-0.1567400E+04  (-0.1515586E+04)
 number of electron     182.0000000 magnetization 
 augmentation part      182.0000000 magnetization 

 Free energy of the ion-electron system (eV)
  ---------------------------------------------------
  alpha Z        PSCENC =       582.73103390
  Ewald energy   TEWEN  =     14043.26313415
  -Hartree energ DENC   =    -36525.67245329
  -exchange      EXHF   =         0.00000000
  -V(xc)+E(xc)   XCENC  =       756.65252727
  PAW double counting   =     19997.85603494   -21693.12362158
  entropy T*S    EENTRO =        -0.00041753
  eigenvalues    EBANDS =       379.75639791
  atomic energy  EATOM  =     22687.98115858
  Solvation  Ediel_sol  =         0.00000000
  ---------------------------------------------------
  free energy    TOTEN  =       229.44379436 eV

  energy without entropy =      229.44421189  energy(sigma->0) =      229.44400312


--------------------------------------------------------------------------------------------------------




--------------------------------------- Iteration      1(   3)  ---------------------------------------


     EDDAV:  cpu time   10.9846: real time   10.9867
       DOS:  cpu time    0.0035: real time    0.0034
    --------------------------------------------
      LOOP:  cpu time   10.9881: real time   10.9901

 eigenvalue-minimisations  : 21294
 total energy-change (2. order) :-0.2810769E+03  (-0.2602418E+03)
 number of electron     182.0000000 magnetization 
 augmentation part      182.0000000 magnetization 

 Free energy of the ion-electron system (eV)
  ---------------------------------------------------
  alpha Z        PSCENC =       582.73103390
  Ewald energy   TEWEN  =     14043.26313415
  -Hartree energ DENC   =    -36525.67245329
  -exchange      EXHF   =         0.00000000
  -V(xc)+E(xc)   XCENC  =       756.65252727
  PAW double counting   =     19997.85603494   -21693.12362158
  entropy T*S    EENTRO =        -0.00059834
  eigenvalues    EBANDS =        98.67966660
  atomic energy  EATOM  =     22687.98115858
  Solvation  Ediel_sol  =         0.00000000
  ---------------------------------------------------
  free energy    TOTEN  =       -51.63311777 eV

  energy without entropy =      -51.63251943  energy(sigma->0) =      -51.63281860


--------------------------------------------------------------------------------------------------------




--------------------------------------- Iteration      1(   4)  ---------------------------------------


     EDDAV:  cpu time   13.1958: real time   13.1963
       DOS:  cpu time    0.0034: real time    0.0034
    --------------------------------------------
      LOOP:  cpu time   13.1991: real time   13.1997

 eigenvalue-minimisations  : 26682
 total energy-change (2. order) :-0.2591761E+02  (-0.2465864E+02)
 number of electron     182.0000000 magnetization 
 augmentation part      182.0000000 magnetization 

 Free energy of the ion-electron system (eV)
  ---------------------------------------------------
  alpha Z        PSCENC =       582.73103390
  Ewald energy   TEWEN  =     14043.26313415
  -Hartree energ DENC   =    -36525.67245329
  -exchange      EXHF   =         0.00000000
  -V(xc)+E(xc)   XCENC  =       756.65252727
  PAW double counting   =     19997.85603494   -21693.12362158
  entropy T*S    EENTRO =        -0.00062164
  eigenvalues    EBANDS =        72.76208224
  atomic energy  EATOM  =     22687.98115858
  Solvation  Ediel_sol  =         0.00000000
  ---------------------------------------------------
  free energy    TOTEN  =       -77.55072543 eV

  energy without entropy =      -77.55010379  energy(sigma->0) =      -77.55041461


--------------------------------------------------------------------------------------------------------




--------------------------------------- Iteration      1(   5)  ---------------------------------------


     EDDAV:  cpu time   11.7108: real time   11.7113
       DOS:  cpu time    0.0036: real time    0.0036
    CHARGE:  cpu time    0.3236: real time    0.3237
    MIXING:  cpu time    0.0007: real time    0.0008
    --------------------------------------------
      LOOP:  cpu time   12.0387: real time   12.0393

 eigenvalue-minimisations  : 23130
 total energy-change (2. order) :-0.8524181E+00  (-0.8482172E+00)
 number of electron     181.9999862 magnetization 
 augmentation part      104.6219534 magnetization 

 Broyden mixing:
  rms(total) = 0.31973E+01    rms(broyden)= 0.31971E+01
  rms(prec ) = 0.36275E+01
  weight for this iteration     100.00

 Free energy of the ion-electron system (eV)
  ---------------------------------------------------
  alpha Z        PSCENC =       582.73103390
  Ewald energy   TEWEN  =     14043.26313415
  -Hartree energ DENC   =    -36525.67245329
  -exchange      EXHF   =         0.00000000
  -V(xc)+E(xc)   XCENC  =       756.65252727
  PAW double counting   =     19997.85603494   -21693.12362158
  entropy T*S    EENTRO =        -0.00069914
  eigenvalues    EBANDS =        71.90974162
  atomic energy  EATOM  =     22687.98115858
  Solvation  Ediel_sol  =         0.00000000
  ---------------------------------------------------
  free energy    TOTEN  =       -78.40314355 eV

  energy without entropy =      -78.40244441  energy(sigma->0) =      -78.40279398


--------------------------------------------------------------------------------------------------------




--------------------------------------- Iteration      1(   6)  ---------------------------------------


    POTLOK:  cpu time    0.0143: real time    0.0157
    SETDIJ:  cpu time    0.1656: real time    0.1656
     EDDAV:  cpu time   11.6888: real time   11.6893
       DOS:  cpu time    0.0036: real time    0.0036
    CHARGE:  cpu time    0.3241: real time    0.3241
    MIXING:  cpu time    0.0007: real time    0.0007
    --------------------------------------------
      LOOP:  cpu time   12.1971: real time   12.1989

 eigenvalue-minimisations  : 23040
 total energy-change (2. order) : 0.7342358E+01  (-0.1655043E+02)
 number of electron     181.9999854 magnetization 
 augmentation part      117.8609777 magnetization 

 Broyden mixing:
  rms(total) = 0.21608E+01    rms(broyden)= 0.21603E+01
  rms(prec ) = 0.25663E+01
  weight for this iteration     100.00

 eigenvalues of (default mixing * dielectric matrix)
  average eigenvalue GAMMA=   0.6021
  0.6021

 Free energy of the ion-electron system (eV)
  ---------------------------------------------------
  alpha Z        PSCENC =       582.73103390
  Ewald energy   TEWEN  =     14043.26313415
  -Hartree energ DENC   =    -36060.43284563
  -exchange      EXHF   =         0.00000000
  -V(xc)+E(xc)   XCENC  =       735.85084215
  PAW double counting   =     20258.94955982   -21862.96887049
  entropy T*S    EENTRO =        -0.00038815
  eigenvalues    EBANDS =      -456.43440963
  atomic energy  EATOM  =     22687.98115858
  Solvation  Ediel_sol  =         0.00000000
  ---------------------------------------------------
  free energy    TOTEN  =       -71.06078529 eV

  energy without entropy =      -71.06039714  energy(sigma->0) =      -71.06059122


--------------------------------------------------------------------------------------------------------




--------------------------------------- Iteration      1(   7)  ---------------------------------------


    POTLOK:  cpu time    0.0145: real time    0.0145
    SETDIJ:  cpu time    0.1627: real time    0.1627
     EDDAV:  cpu time   12.4243: real time   12.4248
       DOS:  cpu time    0.0036: real time    0.0036
    CHARGE:  cpu time    0.3227: real time    0.3227
    MIXING:  cpu time    0.0006: real time    0.0006
    --------------------------------------------
      LOOP:  cpu time   12.9285: real time   12.9290

 eigenvalue-minimisations  : 24768
 total energy-change (2. order) : 0.7878841E+01  (-0.7026958E+01)
 number of electron     181.9999855 magnetization 
 augmentation part      114.0833842 magnetization 

 Broyden mixing:
  rms(total) = 0.75032E+00    rms(broyden)= 0.74979E+00
  rms(prec ) = 0.10711E+01
  weight for this iteration     100.00

 eigenvalues of (default mixing * dielectric matrix)
  average eigenvalue GAMMA=   0.5099
  0.6110  0.4088

 Free energy of the ion-electron system (eV)
  ---------------------------------------------------
  alpha Z        PSCENC =       582.73103390
  Ewald energy   TEWEN  =     14043.26313415
  -Hartree energ DENC   =    -36233.11826154
  -exchange      EXHF   =         0.00000000
  -V(xc)+E(xc)   XCENC  =       741.58855771
  PAW double counting   =     20633.70444094   -22310.96722542
  entropy T*S    EENTRO =        -0.00107838
  eigenvalues    EBANDS =      -208.36370379
  atomic energy  EATOM  =     22687.98115858
  Solvation  Ediel_sol  =         0.00000000
  ---------------------------------------------------
  free energy    TOTEN  =       -63.18194385 eV

  energy without entropy =      -63.18086547  energy(sigma->0) =      -63.18140466


--------------------------------------------------------------------------------------------------------




--------------------------------------- Iteration      1(   8)  ---------------------------------------


    POTLOK:  cpu time    0.0145: real time    0.0145
    SETDIJ:  cpu time    0.1626: real time    0.1626
     EDDAV:  cpu time   13.0238: real time   13.0243
       DOS:  cpu time    0.0036: real time    0.0036
    CHARGE:  cpu time    0.3237: real time    0.3237
    MIXING:  cpu time    0.0006: real time    0.0006
    --------------------------------------------
      LOOP:  cpu time   13.5287: real time   13.5293

 eigenvalue-minimisations  : 26394
 total energy-change (2. order) : 0.5958797E+00  (-0.1361175E+01)
 number of electron     181.9999856 magnetization 
 augmentation part      113.1194015 magnetization 

 Broyden mixing:
  rms(total) = 0.44868E+00    rms(broyden)= 0.44860E+00
  rms(prec ) = 0.55794E+00
  weight for this iteration     100.00

 eigenvalues of (default mixing * dielectric matrix)
  average eigenvalue GAMMA=   0.4708
  0.6700  0.3712  0.3712

 Free energy of the ion-electron system (eV)
  ---------------------------------------------------
  alpha Z        PSCENC =       582.73103390
  Ewald energy   TEWEN  =     14043.26313415
  -Hartree energ DENC   =    -36245.35052737
  -exchange      EXHF   =         0.00000000
  -V(xc)+E(xc)   XCENC  =       742.60633897
  PAW double counting   =     20773.62561553   -22466.09812584
  entropy T*S    EENTRO =        -0.00090097
  eigenvalues    EBANDS =      -181.34379114
  atomic energy  EATOM  =     22687.98115858
  Solvation  Ediel_sol  =         0.00000000
  ---------------------------------------------------
  free energy    TOTEN  =       -62.58606418 eV

  energy without entropy =      -62.58516321  energy(sigma->0) =      -62.58561369


--------------------------------------------------------------------------------------------------------




--------------------------------------- Iteration      1(   9)  ---------------------------------------


    POTLOK:  cpu time    0.0150: real time    0.0165
    SETDIJ:  cpu time    0.1630: real time    0.1630
     EDDAV:  cpu time   14.0352: real time   14.0359
       DOS:  cpu time    0.0037: real time    0.0037
    CHARGE:  cpu time    0.3244: real time    0.3244
    MIXING:  cpu time    0.0006: real time    0.0006
    --------------------------------------------
      LOOP:  cpu time   14.5419: real time   14.5441

 eigenvalue-minimisations  : 27294
 total energy-change (2. order) : 0.1217798E+00  (-0.3485515E+00)
 number of electron     181.9999857 magnetization 
 augmentation part      112.7838403 magnetization 

 Broyden mixing:
  rms(total) = 0.23118E+00    rms(broyden)= 0.23115E+00
  rms(prec ) = 0.29731E+00
  weight for this iteration     100.00

 eigenvalues of (default mixing * dielectric matrix)
  average eigenvalue GAMMA=   0.7494
  1.6723  0.5210  0.5210  0.2834

 Free energy of the ion-electron system (eV)
  ---------------------------------------------------
  alpha Z        PSCENC =       582.73103390
  Ewald energy   TEWEN  =     14043.26313415
  -Hartree energ DENC   =    -36247.47268602
  -exchange      EXHF   =         0.00000000
  -V(xc)+E(xc)   XCENC  =       742.71607675
  PAW double counting   =     20882.10545276   -22582.86083047
  entropy T*S    EENTRO =        -0.00041012
  eigenvalues    EBANDS =      -170.92721394
  atomic energy  EATOM  =     22687.98115858
  Solvation  Ediel_sol  =         0.00000000
  ---------------------------------------------------
  free energy    TOTEN  =       -62.46428440 eV

  energy without entropy =      -62.46387428  energy(sigma->0) =      -62.46407934


--------------------------------------------------------------------------------------------------------




--------------------------------------- Iteration      1(  10)  ---------------------------------------


    POTLOK:  cpu time    0.0146: real time    0.0146
    SETDIJ:  cpu time    0.1625: real time    0.1625
     EDDAV:  cpu time   13.8812: real time   13.8818
       DOS:  cpu time    0.0037: real time    0.0037
    CHARGE:  cpu time    0.3240: real time    0.3240
    MIXING:  cpu time    0.0007: real time    0.0007
    --------------------------------------------
      LOOP:  cpu time   14.3866: real time   14.3873

 eigenvalue-minimisations  : 28398
 total energy-change (2. order) : 0.5303229E-01  (-0.1413170E+00)
 number of electron     181.9999857 magnetization 
 augmentation part      112.6963960 magnetization 

 Broyden mixing:
  rms(total) = 0.22959E+00    rms(broyden)= 0.22951E+00
  rms(prec ) = 0.28943E+00
  weight for this iteration     100.00

 eigenvalues of (default mixing * dielectric matrix)
  average eigenvalue GAMMA=   0.7491
  2.0426  0.5569  0.4479  0.4479  0.2502

 Free energy of the ion-electron system (eV)
  ---------------------------------------------------
  alpha Z        PSCENC =       582.73103390
  Ewald energy   TEWEN  =     14043.26313415
  -Hartree energ DENC   =    -36234.27313385
  -exchange      EXHF   =         0.00000000
  -V(xc)+E(xc)   XCENC  =       741.93112792
  PAW double counting   =     21198.86398453   -22917.72393621
  entropy T*S    EENTRO =        -0.00040431
  eigenvalues    EBANDS =      -165.18421682
  atomic energy  EATOM  =     22687.98115858
  Solvation  Ediel_sol  =         0.00000000
  ---------------------------------------------------
  free energy    TOTEN  =       -62.41125211 eV

  energy without entropy =      -62.41084780  energy(sigma->0) =      -62.41104995


--------------------------------------------------------------------------------------------------------




--------------------------------------- Iteration      1(  11)  ---------------------------------------


    POTLOK:  cpu time    0.0145: real time    0.0145
    SETDIJ:  cpu time    0.1626: real time    0.1626
     EDDAV:  cpu time   13.2468: real time   13.2473
       DOS:  cpu time    0.0034: real time    0.0034
    CHARGE:  cpu time    0.3252: real time    0.3252
    MIXING:  cpu time    0.0007: real time    0.0007
    --------------------------------------------
      LOOP:  cpu time   13.7532: real time   13.7538

 eigenvalue-minimisations  : 27000
 total energy-change (2. order) : 0.1450111E-01  (-0.4950676E-01)
 number of electron     181.9999858 magnetization 
 augmentation part      112.6897579 magnetization 

 Broyden mixing:
  rms(total) = 0.19106E+00    rms(broyden)= 0.19105E+00
  rms(prec ) = 0.22561E+00
  weight for this iteration     100.00

 eigenvalues of (default mixing * dielectric matrix)
  average eigenvalue GAMMA=   0.8538
  2.2068  1.0118  0.6349  0.6349  0.2619  0.3723

 Free energy of the ion-electron system (eV)
  ---------------------------------------------------
  alpha Z        PSCENC =       582.73103390
  Ewald energy   TEWEN  =     14043.26313415
  -Hartree energ DENC   =    -36229.40712094
  -exchange      EXHF   =         0.00000000
  -V(xc)+E(xc)   XCENC  =       741.63298105
  PAW double counting   =     21280.79450803   -23004.32669716
  entropy T*S    EENTRO =        -0.00052716
  eigenvalues    EBANDS =      -165.06522146
  atomic energy  EATOM  =     22687.98115858
  Solvation  Ediel_sol  =         0.00000000
  ---------------------------------------------------
  free energy    TOTEN  =       -62.39675100 eV

  energy without entropy =      -62.39622385  energy(sigma->0) =      -62.39648743


--------------------------------------------------------------------------------------------------------




--------------------------------------- Iteration      1(  12)  ---------------------------------------


    POTLOK:  cpu time    0.0149: real time    0.0164
    SETDIJ:  cpu time    0.1620: real time    0.1620
     EDDAV:  cpu time   13.9247: real time   13.9253
       DOS:  cpu time    0.0034: real time    0.0034
    CHARGE:  cpu time    0.3252: real time    0.3252
    MIXING:  cpu time    0.0007: real time    0.0007
    --------------------------------------------
      LOOP:  cpu time   14.4309: real time   14.4331

 eigenvalue-minimisations  : 28428
 total energy-change (2. order) : 0.2385270E-01  (-0.4466596E-01)
 number of electron     181.9999857 magnetization 
 augmentation part      112.7668401 magnetization 

 Broyden mixing:
  rms(total) = 0.10713E+00    rms(broyden)= 0.10705E+00
  rms(prec ) = 0.14330E+00
  weight for this iteration     100.00

 eigenvalues of (default mixing * dielectric matrix)
  average eigenvalue GAMMA=   0.8223
  2.3267  0.8829  0.8194  0.5447  0.5447  0.2608  0.3768

 Free energy of the ion-electron system (eV)
  ---------------------------------------------------
  alpha Z        PSCENC =       582.73103390
  Ewald energy   TEWEN  =     14043.26313415
  -Hartree energ DENC   =    -36223.88142770
  -exchange      EXHF   =         0.00000000
  -V(xc)+E(xc)   XCENC  =       741.09387699
  PAW double counting   =     21351.25001799   -23078.38799424
  entropy T*S    EENTRO =        -0.00053352
  eigenvalues    EBANDS =      -166.42216446
  atomic energy  EATOM  =     22687.98115858
  Solvation  Ediel_sol  =         0.00000000
  ---------------------------------------------------
  free energy    TOTEN  =       -62.37289830 eV

  energy without entropy =      -62.37236478  energy(sigma->0) =      -62.37263154


--------------------------------------------------------------------------------------------------------




--------------------------------------- Iteration      1(  13)  ---------------------------------------


    POTLOK:  cpu time    0.0144: real time    0.0144
    SETDIJ:  cpu time    0.1623: real time    0.1623
     EDDAV:  cpu time   13.7835: real time   13.7841
       DOS:  cpu time    0.0033: real time    0.0033
    CHARGE:  cpu time    0.3250: real time    0.3250
    MIXING:  cpu time    0.0008: real time    0.0008
    --------------------------------------------
      LOOP:  cpu time   14.2893: real time   14.2899

 eigenvalue-minimisations  : 28350
 total energy-change (2. order) : 0.1036924E-01  (-0.1355630E-01)
 number of electron     181.9999857 magnetization 
 augmentation part      112.8759699 magnetization 

 Broyden mixing:
  rms(total) = 0.79345E-01    rms(broyden)= 0.79338E-01
  rms(prec ) = 0.99745E-01
  weight for this iteration     100.00

 eigenvalues of (default mixing * dielectric matrix)
  average eigenvalue GAMMA=   0.8122
  2.2976  1.1230  0.7664  0.6143  0.6143  0.2615  0.4559  0.3645

 Free energy of the ion-electron system (eV)
  ---------------------------------------------------
  alpha Z        PSCENC =       582.73103390
  Ewald energy   TEWEN  =     14043.26313415
  -Hartree energ DENC   =    -36219.81962623
  -exchange      EXHF   =         0.00000000
  -V(xc)+E(xc)   XCENC  =       740.90202114
  PAW double counting   =     21370.36987635   -23097.32904769
  entropy T*S    EENTRO =        -0.00043260
  eigenvalues    EBANDS =      -170.46064667
  atomic energy  EATOM  =     22687.98115858
  Solvation  Ediel_sol  =         0.00000000
  ---------------------------------------------------
  free energy    TOTEN  =       -62.36252906 eV

  energy without entropy =      -62.36209646  energy(sigma->0) =      -62.36231276


--------------------------------------------------------------------------------------------------------




--------------------------------------- Iteration      1(  14)  ---------------------------------------


    POTLOK:  cpu time    0.0145: real time    0.0145
    SETDIJ:  cpu time    0.1621: real time    0.1621
     EDDAV:  cpu time   12.4416: real time   12.4422
       DOS:  cpu time    0.0036: real time    0.0036
    CHARGE:  cpu time    0.3300: real time    0.3300
    MIXING:  cpu time    0.0008: real time    0.0008
    --------------------------------------------
      LOOP:  cpu time   12.9525: real time   12.9531

 eigenvalue-minimisations  : 24900
 total energy-change (2. order) : 0.9024183E-02  (-0.4137128E-02)
 number of electron     181.9999857 magnetization 
 augmentation part      112.9302134 magnetization 

 Broyden mixing:
  rms(total) = 0.26909E-01    rms(broyden)= 0.26899E-01
  rms(prec ) = 0.32628E-01
  weight for this iteration     100.00

 eigenvalues of (default mixing * dielectric matrix)
  average eigenvalue GAMMA=   0.8101
  2.3182  1.2099  0.7745  0.7745  0.6020  0.6020  0.2614  0.3945  0.3538

 Free energy of the ion-electron system (eV)
  ---------------------------------------------------
  alpha Z        PSCENC =       582.73103390
  Ewald energy   TEWEN  =     14043.26313415
  -Hartree energ DENC   =    -36219.57087012
  -exchange      EXHF   =         0.00000000
  -V(xc)+E(xc)   XCENC  =       740.86101955
  PAW double counting   =     21377.78140788   -23104.43904773
  entropy T*S    EENTRO =        -0.00050546
  eigenvalues    EBANDS =      -170.96083563
  atomic energy  EATOM  =     22687.98115858
  Solvation  Ediel_sol  =         0.00000000
  ---------------------------------------------------
  free energy    TOTEN  =       -62.35350488 eV

  energy without entropy =      -62.35299942  energy(sigma->0) =      -62.35325215


--------------------------------------------------------------------------------------------------------




--------------------------------------- Iteration      1(  15)  ---------------------------------------


    POTLOK:  cpu time    0.0149: real time    0.0165
    SETDIJ:  cpu time    0.1621: real time    0.1621
     EDDAV:  cpu time   13.6319: real time   13.6324
       DOS:  cpu time    0.0036: real time    0.0036
    CHARGE:  cpu time    0.3246: real time    0.3246
    MIXING:  cpu time    0.0009: real time    0.0009
    --------------------------------------------
      LOOP:  cpu time   14.1379: real time   14.1400

 eigenvalue-minimisations  : 27810
 total energy-change (2. order) :-0.8669949E-03  (-0.1726823E-02)
 number of electron     181.9999857 magnetization 
 augmentation part      112.9210755 magnetization 

 Broyden mixing:
  rms(total) = 0.11395E-01    rms(broyden)= 0.11381E-01
  rms(prec ) = 0.16946E-01
  weight for this iteration     100.00

 eigenvalues of (default mixing * dielectric matrix)
  average eigenvalue GAMMA=   0.9086
  2.2456  2.2456  0.9486  0.9486  0.6170  0.6170  0.2613  0.4696  0.3814  0.3517

 Free energy of the ion-electron system (eV)
  ---------------------------------------------------
  alpha Z        PSCENC =       582.73103390
  Ewald energy   TEWEN  =     14043.26313415
  -Hartree energ DENC   =    -36221.42670602
  -exchange      EXHF   =         0.00000000
  -V(xc)+E(xc)   XCENC  =       740.90569772
  PAW double counting   =     21380.79760816   -23107.63572380
  entropy T*S    EENTRO =        -0.00049459
  eigenvalues    EBANDS =      -168.97007998
  atomic energy  EATOM  =     22687.98115858
  Solvation  Ediel_sol  =         0.00000000
  ---------------------------------------------------
  free energy    TOTEN  =       -62.35437187 eV

  energy without entropy =      -62.35387729  energy(sigma->0) =      -62.35412458


--------------------------------------------------------------------------------------------------------




--------------------------------------- Iteration      1(  16)  ---------------------------------------


    POTLOK:  cpu time    0.0147: real time    0.0147
    SETDIJ:  cpu time    0.1622: real time    0.1622
     EDDAV:  cpu time   11.6300: real time   11.6305
       DOS:  cpu time    0.0037: real time    0.0037
    CHARGE:  cpu time    0.3262: real time    0.3262
    MIXING:  cpu time    0.0009: real time    0.0009
    --------------------------------------------
      LOOP:  cpu time   12.1378: real time   12.1383

 eigenvalue-minimisations  : 23148
 total energy-change (2. order) : 0.9659507E-04  (-0.2945938E-03)
 number of electron     181.9999857 magnetization 
 augmentation part      112.8999567 magnetization 

 Broyden mixing:
  rms(total) = 0.91282E-02    rms(broyden)= 0.91220E-02
  rms(prec ) = 0.11298E-01
  weight for this iteration     100.00

 eigenvalues of (default mixing * dielectric matrix)
  average eigenvalue GAMMA=   0.9519
  2.8792  2.2810  0.9472  0.8465  0.8465  0.6136  0.6136  0.2614  0.4424  0.3837
  0.3557

 Free energy of the ion-electron system (eV)
  ---------------------------------------------------
  alpha Z        PSCENC =       582.73103390
  Ewald energy   TEWEN  =     14043.26313415
  -Hartree energ DENC   =    -36224.72589333
  -exchange      EXHF   =         0.00000000
  -V(xc)+E(xc)   XCENC  =       740.96558622
  PAW double counting   =     21385.04624297   -23111.99516382
  entropy T*S    EENTRO =        -0.00050537
  eigenvalues    EBANDS =      -165.61986859
  atomic energy  EATOM  =     22687.98115858
  Solvation  Ediel_sol  =         0.00000000
  ---------------------------------------------------
  free energy    TOTEN  =       -62.35427528 eV

  energy without entropy =      -62.35376991  energy(sigma->0) =      -62.35402259


--------------------------------------------------------------------------------------------------------




--------------------------------------- Iteration      1(  17)  ---------------------------------------


    POTLOK:  cpu time    0.0144: real time    0.0144
    SETDIJ:  cpu time    0.1621: real time    0.1621
     EDDAV:  cpu time   13.6980: real time   13.6986
       DOS:  cpu time    0.0036: real time    0.0036
    CHARGE:  cpu time    0.3271: real time    0.3271
    MIXING:  cpu time    0.0010: real time    0.0010
    --------------------------------------------
      LOOP:  cpu time   14.2062: real time   14.2068

 eigenvalue-minimisations  : 28152
 total energy-change (2. order) :-0.1462067E-05  (-0.1000195E-03)
 number of electron     181.9999857 magnetization 
 augmentation part      112.9055457 magnetization 

 Broyden mixing:
  rms(total) = 0.10535E-01    rms(broyden)= 0.10534E-01
  rms(prec ) = 0.13202E-01
  weight for this iteration     100.00

 eigenvalues of (default mixing * dielectric matrix)
  average eigenvalue GAMMA=   0.9331
  2.7584  2.3699  0.9567  0.9567  0.9533  0.6111  0.6111  0.5435  0.2614  0.4432
  0.3805  0.3512

 Free energy of the ion-electron system (eV)
  ---------------------------------------------------
  alpha Z        PSCENC =       582.73103390
  Ewald energy   TEWEN  =     14043.26313415
  -Hartree energ DENC   =    -36225.82443378
  -exchange      EXHF   =         0.00000000
  -V(xc)+E(xc)   XCENC  =       740.95668494
  PAW double counting   =     21386.41739193   -23113.23353416
  entropy T*S    EENTRO =        -0.00052722
  eigenvalues    EBANDS =      -164.64518509
  atomic energy  EATOM  =     22687.98115858
  Solvation  Ediel_sol  =         0.00000000
  ---------------------------------------------------
  free energy    TOTEN  =       -62.35427674 eV

  energy without entropy =      -62.35374952  energy(sigma->0) =      -62.35401313


--------------------------------------------------------------------------------------------------------




--------------------------------------- Iteration      1(  18)  ---------------------------------------


    POTLOK:  cpu time    0.0148: real time    0.0163
    SETDIJ:  cpu time    0.1627: real time    0.1627
     EDDAV:  cpu time   11.7430: real time   11.7435
       DOS:  cpu time    0.0033: real time    0.0033
    CHARGE:  cpu time    0.3264: real time    0.3264
    MIXING:  cpu time    0.0010: real time    0.0010
    --------------------------------------------
      LOOP:  cpu time   12.2512: real time   12.2532

 eigenvalue-minimisations  : 23268
 total energy-change (2. order) : 0.1044682E-03  (-0.2898331E-04)
 number of electron     181.9999857 magnetization 
 augmentation part      112.9127774 magnetization 

 Broyden mixing:
  rms(total) = 0.63186E-02    rms(broyden)= 0.63185E-02
  rms(prec ) = 0.82687E-02
  weight for this iteration     100.00

 eigenvalues of (default mixing * dielectric matrix)
  average eigenvalue GAMMA=   0.9745
  2.5948  2.5948  1.3663  1.1046  0.9859  0.9859  0.6099  0.6099  0.2614  0.4559
  0.3524  0.3735  0.3735

 Free energy of the ion-electron system (eV)
  ---------------------------------------------------
  alpha Z        PSCENC =       582.73103390
  Ewald energy   TEWEN  =     14043.26313415
  -Hartree energ DENC   =    -36225.90026932
  -exchange      EXHF   =         0.00000000
  -V(xc)+E(xc)   XCENC  =       740.94035521
  PAW double counting   =     21385.44300396   -23112.16850681
  entropy T*S    EENTRO =        -0.00053603
  eigenvalues    EBANDS =      -164.64354592
  atomic energy  EATOM  =     22687.98115858
  Solvation  Ediel_sol  =         0.00000000
  ---------------------------------------------------
  free energy    TOTEN  =       -62.35417227 eV

  energy without entropy =      -62.35363624  energy(sigma->0) =      -62.35390426


--------------------------------------------------------------------------------------------------------




--------------------------------------- Iteration      1(  19)  ---------------------------------------


    POTLOK:  cpu time    0.0145: real time    0.0145
    SETDIJ:  cpu time    0.1623: real time    0.1623
     EDDAV:  cpu time   14.3890: real time   14.3896
       DOS:  cpu time    0.0037: real time    0.0037
    CHARGE:  cpu time    0.3260: real time    0.3260
    MIXING:  cpu time    0.0011: real time    0.0011
    --------------------------------------------
      LOOP:  cpu time   14.8966: real time   14.8972

 eigenvalue-minimisations  : 29754
 total energy-change (2. order) :-0.7186872E-04  (-0.8333905E-04)
 number of electron     181.9999857 magnetization 
 augmentation part      112.9191535 magnetization 

 Broyden mixing:
  rms(total) = 0.50167E-02    rms(broyden)= 0.50120E-02
  rms(prec ) = 0.60024E-02
  weight for this iteration     100.00

 eigenvalues of (default mixing * dielectric matrix)
  average eigenvalue GAMMA=   1.0128
  2.8485  2.8485  1.8780  1.0577  0.9338  0.9338  0.6079  0.6079  0.6521  0.2614
  0.4462  0.3805  0.3570  0.3666

 Free energy of the ion-electron system (eV)
  ---------------------------------------------------
  alpha Z        PSCENC =       582.73103390
  Ewald energy   TEWEN  =     14043.26313415
  -Hartree energ DENC   =    -36226.43183771
  -exchange      EXHF   =         0.00000000
[...]
     64       0.0274      2.00000
     65       0.0587      2.00000
     66       0.0838      2.00000
     67       0.1470      2.00000
     68       0.1693      2.00000
     69       0.1903      2.00000
     70       0.2101      2.00000
     71       0.2597      2.00000
     72       0.3021      2.00000
     73       0.3333      2.00000
     74       0.3611      2.00000
     75       0.4187      2.00000
     76       0.4396      2.00000
     77       0.4511      2.00000
     78       0.4831      2.00000
     79       0.4929      2.00000
     80       0.5186      2.00000
     81       0.5306      2.00000
     82       0.5607      2.00000
     83       0.5978      2.00000
     84       0.6600      2.00000
     85       0.7097      2.00000
     86       0.8145      2.00000
     87       0.8635      2.00000
     88       0.8953      2.00000
     89       1.1066      2.00000
     90       1.4372      2.00000
     91       1.7448      2.00000
     92       2.5492      0.00000
     93       2.8405      0.00000
     94       3.2367      0.00000
     95       4.1029      0.00000
     96       4.4061      0.00000
     97       4.6408      0.00000
     98       4.7250      0.00000
     99       5.1940      0.00000
    100       5.5790      0.00000
    101       6.2028      0.00000
    102       7.2316      0.00000
    103       7.3205      0.00000
    104       7.5130      0.00000
    105       8.0232      0.00000
    106       8.6036      0.00000
    107       9.2332      0.00000
    108       9.3420      0.00000
    109       9.4365      0.00000
    110       9.6485      0.00000
    111       9.7865      0.00000
    112       9.9225      0.00000
    113      10.1517      0.00000
    114      10.2720      0.00000

 k-point    82 :      -0.1111    0.4444    0.5000
  band No.  band energies     occupation 
      1     -15.9827      2.00000
      2      -5.4551      2.00000
      3      -4.3286      2.00000
      4      -4.0151      2.00000
      5      -3.3480      2.00000
      6      -3.0235      2.00000
      7      -2.9633      2.00000
      8      -2.7562      2.00000
      9      -2.6093      2.00000
     10      -2.4250      2.00000
     11      -2.2806      2.00000
     12      -2.1476      2.00000
     13      -2.0931      2.00000
     14      -2.0228      2.00000
     15      -1.9716      2.00000
     16      -1.8953      2.00000
     17      -1.8107      2.00000
     18      -1.7687      2.00000
     19      -1.7228      2.00000
     20      -1.7113      2.00000
     21      -1.6034      2.00000
     22      -1.5182      2.00000
     23      -1.4489      2.00000
     24      -1.3935      2.00000
     25      -1.3707      2.00000
     26      -1.3559      2.00000
     27      -1.3238      2.00000
     28      -1.3176      2.00000
     29      -1.2327      2.00000
     30      -1.1678      2.00000
     31      -1.1372      2.00000
     32      -1.0979      2.00000
     33      -1.0294      2.00000
     34      -1.0146      2.00000
     35      -0.9905      2.00000
     36      -0.9404      2.00000
     37      -0.8744      2.00000
     38      -0.8264      2.00000
     39      -0.8028      2.00000
     40      -0.7457      2.00000
     41      -0.7206      2.00000
     42      -0.6361      2.00000
     43      -0.6243      2.00000
     44      -0.6047      2.00000
     45      -0.5684      2.00000
     46      -0.5622      2.00000
     47      -0.5271      2.00000
     48      -0.5060      2.00000
     49      -0.4842      2.00000
     50      -0.4734      2.00000
     51      -0.3872      2.00000
     52      -0.3706      2.00000
     53      -0.3650      2.00000
     54      -0.3291      2.00000
     55      -0.2767      2.00000
     56      -0.2498      2.00000
     57      -0.2220      2.00000
     58      -0.2048      2.00000
     59      -0.1706      2.00000
     60      -0.1369      2.00000
     61      -0.1259      2.00000
     62      -0.0266      2.00000
     63      -0.0094      2.00000
     64       0.0219      2.00000
     65       0.0524      2.00000
     66       0.0771      2.00000
     67       0.1309      2.00000
     68       0.1494      2.00000
     69       0.1592      2.00000
     70       0.1895      2.00000
     71       0.2297      2.00000
     72       0.2552      2.00000
     73       0.2686      2.00000
     74       0.2972      2.00000
     75       0.3586      2.00000
     76       0.4082      2.00000
     77       0.4173      2.00000
     78       0.4426      2.00000
     79       0.4805      2.00000
     80       0.5101      2.00000
     81       0.5393      2.00000
     82       0.5665      2.00000
     83       0.5841      2.00000
     84       0.6019      2.00000
     85       0.6574      2.00000
     86       0.7412      2.00000
     87       1.0243      2.00000
     88       1.0878      2.00000
     89       1.3526      2.00000
     90       1.5428      2.00000
     91       1.9287      2.00000
     92       2.4529      0.00000
     93       2.8830      0.00000
     94       3.1591      0.00000
     95       3.6037      0.00000
     96       3.9885      0.00000
     97       4.5077      0.00000
     98       4.7205      0.00000
     99       5.6545      0.00000
    100       5.9332      0.00000
    101       6.3655      0.00000
    102       7.0217      0.00000
    103       7.5760      0.00000
    104       7.6243      0.00000
    105       8.3545      0.00000
    106       8.7277      0.00000
    107       8.9676      0.00000
    108       9.1190      0.00000
    109       9.4782      0.00000
    110       9.7833      0.00000
    111       9.8622      0.00000
    112      10.0466      0.00000
    113      10.3058      0.00000
    114      10.5250      0.00000


--------------------------------------------------------------------------------------------------------


 soft charge-density along one line, spin component           1
         0         1         2         3         4         5         6         7         8         9
 total charge-density along one line
 
 pseudopotential strength for first ion, spin component:           1
 -6.635  -0.004  -0.002   0.000   0.000  -1.901   0.003   0.001
 -0.004  -6.592  -0.001   0.001  -0.000   0.003  -1.936   0.000
 -0.002  -0.001  -6.586  -0.001   0.003   0.001   0.000  -1.942
  0.000   0.001  -0.001  -6.596   0.002   0.000  -0.001   0.001
  0.000  -0.000   0.003   0.002  -6.635  -0.000   0.000  -0.002
 -1.901   0.003   0.001   0.000  -0.000   8.319  -0.002  -0.001
  0.003  -1.936   0.000  -0.001   0.000  -0.002   8.344  -0.000
  0.001   0.000  -1.942   0.001  -0.002  -0.001  -0.000   8.348
  0.000  -0.001   0.001  -1.933  -0.001  -0.000   0.001  -0.001
 -0.000   0.000  -0.002  -0.001  -1.901   0.000  -0.000   0.001
 -0.000   0.000  -0.009   0.000   0.000   0.000  -0.000   0.003
 -0.001   0.001  -0.016   0.001   0.001   0.000  -0.000   0.006
  0.001  -0.008  -0.001   0.000  -0.001  -0.000   0.007   0.000
  0.000   0.001  -0.009   0.001  -0.000  -0.000  -0.001   0.008
  0.001   0.000  -0.000  -0.008   0.000  -0.001  -0.000   0.000
  0.001  -0.009  -0.001   0.000  -0.001  -0.000   0.008   0.000
  0.000   0.001  -0.010   0.001  -0.000  -0.000  -0.001   0.009
  0.001   0.000  -0.000  -0.009   0.001  -0.001  -0.000   0.000
 total augmentation occupancy for first ion, spin component:           1
  1.909  -0.005  -0.002  -0.001   0.002  -0.015   0.005   0.000   0.000  -0.000   0.000  -0.000   0.007   0.001  -0.001  -0.000
 -0.005   1.927  -0.003  -0.000  -0.000   0.005  -0.031   0.001   0.000   0.000  -0.006  -0.001   0.011   0.001   0.002  -0.010
 -0.002  -0.003   1.928  -0.002   0.001   0.000   0.001  -0.027   0.000  -0.000  -0.003   0.013  -0.001   0.053   0.000  -0.000
 -0.001  -0.000  -0.002   1.927   0.004   0.000   0.000   0.000  -0.031  -0.005  -0.003  -0.000   0.002   0.001   0.009  -0.000
  0.002  -0.000   0.001   0.004   1.910  -0.000   0.000  -0.000  -0.005  -0.015   0.001   0.001   0.003  -0.001  -0.008  -0.001
 -0.015   0.005   0.000   0.000  -0.000   0.014   0.000  -0.000  -0.000   0.000  -0.000   0.000   0.002  -0.000   0.000  -0.000
  0.005  -0.031   0.001   0.000   0.000   0.000   0.010  -0.000  -0.000  -0.000   0.001   0.000   0.016  -0.000  -0.000  -0.001
  0.000   0.001  -0.027   0.000  -0.000  -0.000  -0.000   0.013  -0.000   0.000  -0.044   0.002   0.001   0.023  -0.000  -0.000
  0.000   0.000   0.000  -0.031  -0.005  -0.000  -0.000  -0.000   0.010  -0.000   0.001   0.000  -0.001  -0.000   0.017   0.000
 -0.000   0.000  -0.000  -0.005  -0.015   0.000  -0.000   0.000  -0.000   0.014  -0.000  -0.000  -0.001   0.000  -0.002   0.000
  0.000  -0.006  -0.003  -0.003   0.001  -0.000   0.001  -0.044   0.001  -0.000   1.708  -0.138  -0.002   0.133  -0.001   0.000
 -0.000  -0.001   0.013  -0.000   0.001   0.000   0.000   0.002   0.000  -0.000  -0.138   0.017  -0.000  -0.022  -0.000  -0.000
  0.007   0.011  -0.001   0.002   0.003   0.002   0.016   0.001  -0.001  -0.001  -0.002  -0.000   0.209   0.004  -0.001  -0.013
  0.001   0.001   0.053   0.001  -0.001  -0.000  -0.000   0.023  -0.000   0.000   0.133  -0.022   0.004   0.125   0.002  -0.000
 -0.001   0.002   0.000   0.009  -0.008   0.000  -0.000  -0.000   0.017  -0.002  -0.001  -0.000  -0.001   0.002   0.207   0.000
 -0.000  -0.010  -0.000  -0.000  -0.001  -0.000  -0.001  -0.000   0.000   0.000   0.000  -0.000  -0.013  -0.000   0.000   0.001
  0.000   0.001  -0.014   0.000  -0.000   0.000  -0.000  -0.001  -0.000  -0.000  -0.019   0.002  -0.000  -0.009  -0.000  -0.000
  0.001  -0.000  -0.000  -0.010   0.001  -0.000   0.000   0.000  -0.001   0.000   0.000  -0.000   0.000  -0.000  -0.013  -0.000


------------------------ aborting loop because EDIFF is reached ----------------------------------------


    CHARGE:  cpu time    0.3248: real time    0.3249
    FORLOC:  cpu time    0.0025: real time    0.0025
    FORNL :  cpu time    1.9655: real time    1.9656
    STRESS:  cpu time    6.0525: real time    6.0528
    FORCOR:  cpu time    0.0166: real time    0.0166
    FORHAR:  cpu time    0.0052: real time    0.0052
    MIXING:  cpu time    0.0005: real time    0.0005
    OFIELD:  cpu time    0.0000: real time    0.0000

  FORCE on cell =-STRESS in cart. coord.  units (eV):
  Direction    XX          YY          ZZ          XY          YZ          ZX
  --------------------------------------------------------------------------------------
  Alpha Z   582.73103   582.73103   582.73103
  Ewald   25984.56771 25923.01981-37861.65202    53.25271    12.26720    -7.11742
  Hartree 32472.05576 32442.33362-28683.65290    25.71392     5.28135    -3.06665
  E(xc)   -1057.32215 -1057.40057 -1059.27784     0.06788    -0.01423     0.00819
  Local  -60696.85340-60608.32442 64293.71382   -76.59437   -17.03629     9.88690
  n-local  -363.11409  -364.27374  -370.58375     1.00361     0.44221    -0.25676
  augment  1518.66091  1519.88506  1526.28730    -1.05926    -0.15415     0.09030
  Kinetic  1560.28063  1561.57893  1571.67547    -1.12372     0.22343    -0.12864
  Fock        0.00000     0.00000     0.00000     0.00000     0.00000     0.00000
  -------------------------------------------------------------------------------------
  Total       1.00640    -0.45029    -0.75887     1.26077     1.00951    -0.58408
  in kB       4.74990    -2.12524    -3.58164     5.95046     4.76459    -2.75669
  external pressure =       -0.32 kB  Pullay stress =        0.00 kB


 VOLUME and BASIS-vectors are now :
 -----------------------------------------------------------------------------
  energy-cutoff  :      500.00
  volume of cell :      339.47
      direct lattice vectors                 reciprocal lattice vectors
     4.427085287 -2.555978882  0.000000000     0.225882253  0.000000000  0.000000000
     0.000000000  5.111957764  0.000000000     0.112941127  0.195619770  0.000000000
     0.000000000  0.000000000 15.000000000     0.000000000  0.000000000  0.066666667

  length of vectors
     5.111957764  5.111957764 15.000000000     0.225882253  0.225882253  0.066666667


 FORCES acting on ions
    electron-ion (+dipol)            ewald-force                    non-local-force                 convergence-correction
 -----------------------------------------------------------------------------------------------
   0.280E+00 -.946E-01 0.256E+04   -.379E+00 -.140E+00 -.256E+04   0.778E-01 0.204E+00 -.208E+01   -.892E-05 0.308E-04 0.109E-02
   -.535E+01 0.929E+01 -.717E+03   0.519E+01 -.900E+01 0.718E+03   0.186E+00 -.323E+00 -.107E+01   0.840E-03 -.161E-02 -.699E-02
   -.954E+02 -.189E+02 -.231E+04   0.965E+02 0.186E+02 0.231E+04   -.105E+01 0.134E+00 -.495E+00   0.673E-02 0.273E-03 -.812E-02
   -.579E-01 -.289E+00 0.256E+04   0.311E+00 0.258E+00 -.256E+04   -.216E+00 0.345E-01 -.208E+01   -.216E-04 0.260E-04 0.109E-02
   0.486E+01 0.375E+01 0.931E+03   -.505E+01 -.375E+01 -.930E+03   0.113E+00 -.336E-01 -.825E+00   -.139E-03 0.606E-05 -.418E-02
   0.755E+01 0.432E+01 -.719E+03   -.767E+01 -.434E+01 0.718E+03   0.126E+00 -.232E-01 0.755E+00   0.110E-02 -.110E-02 -.750E-02
   0.520E+02 -.901E+02 -.241E+04   -.529E+02 0.916E+02 0.241E+04   0.913E+00 -.158E+01 0.203E+01   -.105E-02 0.147E-02 -.561E-02
   -.182E+01 0.315E+01 0.925E+03   0.204E+01 -.354E+01 -.924E+03   -.205E+00 0.355E+00 -.392E+00   0.653E-04 -.112E-03 -.417E-02
   0.236E-01 -.407E-01 0.256E+04   -.774E-01 0.134E+00 -.256E+04   0.264E-01 -.458E-01 -.179E+01   0.153E-04 -.217E-04 0.113E-02
   -.752E+01 -.439E+01 -.719E+03   0.760E+01 0.448E+01 0.718E+03   -.431E-01 -.121E+00 0.755E+00   0.382E-03 -.160E-02 -.748E-02
   -.125E+02 0.217E+02 -.240E+04   0.133E+02 -.230E+02 0.239E+04   -.695E+00 0.120E+01 0.547E+01   0.793E-03 -.153E-02 -.377E-02
   -.204E+00 0.352E+00 0.256E+04   0.146E+00 -.253E+00 -.256E+04   0.635E-01 -.110E+00 -.238E+01   0.470E-05 -.142E-04 0.114E-02
   0.248E+01 -.430E+01 0.932E+03   -.261E+01 0.451E+01 -.931E+03   0.117E+00 -.202E+00 -.698E+00   0.122E-04 -.280E-04 -.420E-02
   0.245E+01 -.424E+01 -.692E+03   -.246E+01 0.427E+01 0.690E+03   0.318E-01 -.550E-01 0.151E+01   0.926E-03 -.181E-02 -.795E-02
   0.641E+02 0.732E+02 -.231E+04   -.644E+02 -.743E+02 0.231E+04   0.411E+00 0.979E+00 -.495E+00   -.339E-02 -.547E-02 -.778E-02
   -.569E+01 -.234E+01 0.931E+03   0.578E+01 0.250E+01 -.930E+03   -.272E-01 -.114E+00 -.825E+00   0.665E-04 0.123E-03 -.419E-02
   -.423E+01 0.735E+01 -.165E+04   0.465E+01 -.807E+01 0.167E+04   -.761E+00 0.132E+01 -.260E+02   -.262E-03 0.786E-04 -.174E-02
 -----------------------------------------------------------------------------------------------
   0.937E+00 -.162E+01 0.287E+02   -.320E-13 0.160E-12 0.227E-12   -.934E+00 0.162E+01 -.286E+02   0.608E-02 -.113E-01 -.692E-01
 
 
 POSITION                                       TOTAL-FORCE (eV/Angst)
 -----------------------------------------------------------------------------------
      0.00000      0.00000      0.00000        -0.021802     -0.029810      0.006274
      3.70283      1.25463      4.20569         0.021852     -0.038142      0.025693
      2.32953      1.26333      6.26065         0.057797     -0.139194      0.017647
      2.21354      1.27799      0.00000         0.036623      0.003928      0.006259
      0.73785      3.83397      2.08695        -0.071140     -0.030734     -0.037244
      1.48018      2.55790      4.17939         0.006083     -0.041955     -0.014264
      0.06099      2.45062      6.37393         0.039366     -0.068626      0.135571
      2.95139      2.55598      2.08695         0.018510     -0.032034      0.001824
      0.00000      2.55598      0.00000        -0.027867      0.048182      0.017637
      3.68544     -1.28085      4.17940         0.033204     -0.026284     -0.014286
      2.19856     -1.25178      6.21313         0.084729     -0.146929     -0.158303
      2.21354     -1.27799      0.00000         0.005433     -0.009501      0.061702
      0.73785      1.27799      2.08695        -0.005178      0.008993      0.011308
      1.47121      0.00794      4.14157         0.013958     -0.024261     -0.002395
      4.38201      2.44833      6.26063         0.091701     -0.119553      0.017881
      2.95139      0.00000      2.08695         0.062226      0.046236     -0.037242
      0.92792      0.94904      7.44175        -0.345496      0.599685     -0.038062
 -----------------------------------------------------------------------------------
    total drift:                                0.008308     -0.012760      0.016807


--------------------------------------------------------------------------------------------------------



  FREE ENERGIE OF THE ION-ELECTRON SYSTEM (eV)
  ---------------------------------------------------
  free  energy   TOTEN  =       -62.35330213 eV

  energy  without entropy=      -62.35287405  energy(sigma->0) =      -62.35308809
 
 d Force = 0.1721019E-04[ 0.168E-04, 0.176E-04]  d Energy = 0.1748414E-04-0.274E-06
 d Force =-0.3244388E-01[-0.325E-01,-0.324E-01]  d Ewald  =-0.3244388E-01 0.311E-09


--------------------------------------------------------------------------------------------------------


    POTLOK:  cpu time    0.1774: real time    0.1774


--------------------------------------------------------------------------------------------------------


 NEB: the previous image is higher in energy: T
 NEB: the next image is higher in energy    : F
 NEB: only prev energy greater

 NEB: Tangent
 ----------------------------------------------
      0.00000      0.00000      0.00000
      0.02547     -0.04404      0.03230
      0.06601     -0.17647      0.02664
      0.00000      0.00000      0.00000
      0.00000      0.00000      0.00000
      0.00473     -0.04938     -0.01829
      0.04974     -0.08603      0.17457
      0.00000      0.00000      0.00000
      0.00000      0.00000      0.00000
      0.04037     -0.02880     -0.01825
      0.10675     -0.18485     -0.20441
      0.00000      0.00000      0.00000
      0.00000      0.00000      0.00000
      0.01533     -0.02657     -0.00247
      0.12011     -0.14524      0.02684
      0.00000      0.00000      0.00000
     -0.44313      0.76814     -0.05728

 NEB: forces: par spring, perp REAL, dneb     0.000046    0.015078    0.000000
 NEB: distance to prev, next image, angle between     0.451183    0.451193  135.896922
 NEB: projections on to tangent (spring, REAL)     0.000046    0.782372

 stress matrix after NEB project (eV)
      1.00640      1.26077     -0.58408
      1.26077     -0.45029      1.00951
     -0.58408      1.00951     -0.75887
  FORCES: max atom, RMS     0.007072    0.003657
  FORCE total and by dimension    0.015078    0.006748
  Stress total and by dimension    2.773285    1.260772
 OPT: skip step - force has converged


--------------------------------------------------------------------------------------------------------


  
 reached required accuracy - stopping structural energy minimisation
     LOOP+:  cpu time   65.2185: real time   65.2334
    4ORBIT:  cpu time    0.0000: real time    0.0000

 total amount of memory used by VASP MPI-rank0    93186. kBytes
=======================================================================

   base      :      30000. kBytes
   nonlr-proj:       2751. kBytes
   fftplans  :       1417. kBytes
   grid      :       2255. kBytes
   one-center:         77. kBytes
   wavefun   :      56686. kBytes
 
  
  
 General timing and accounting informations for this job:
 ========================================================
  
                  Total CPU time used (sec):     4808.297
                            User time (sec):     4705.637
                          System time (sec):      102.661
                         Elapsed time (sec):     4811.778
  
                   Maximum memory used (kb):      232508.
                   Average memory used (kb):           0.
  
                          Minor page faults:       183251
                          Major page faults:           26
                 Voluntary context switches:         5826
