TS                                      
           1
     4.427085   -2.555979    0.000000
     0.000000    5.111958    0.000000
     0.000000    0.000000   15.000000
   Cu   O 
  16   1
Direct configuration=     1
   0.00000000  0.00000000  0.00000000
   0.83331009  0.66672065  0.28054515
   0.52094801  0.51584871  0.41736762
   0.50000000  0.50000000  0.00000000
   0.16666667  0.83333333  0.13912987
   0.33129157  0.67080891  0.27866607
   0.00834843  0.49172221  0.42488661
   0.66666667  0.83333333  0.13912987
   0.00000000  0.50000000  0.00000000
   0.82918950  0.16870416  0.27867016
   0.49107670  0.00898314  0.41430966
   0.50000000 -0.00000000  0.00000000
   0.16666667  0.33333333  0.13912987
   0.32921901  0.17079366  0.27608754
   0.98427010  0.97918323  0.41738428
   0.66666667  0.33333333  0.13912987
   0.20411119  0.29612538  0.49603643
Direct configuration=     2
   0.00000000  0.00000000  0.00000000
   0.83332152  0.66670972  0.28054835
   0.52101690  0.51577944  0.41737284
   0.50000000  0.50000000  0.00000000
   0.16666667  0.83333333  0.13912987
   0.33130097  0.67078026  0.27866380
   0.00840654  0.49166442  0.42488959
   0.66666667  0.83333333  0.13912987
   0.00000000  0.50000000  0.00000000
   0.82921856  0.16869501  0.27866785
   0.49116008  0.00890016  0.41429269
   0.50000000 -0.00000000  0.00000000
   0.16666667  0.33333333  0.13912987
   0.32923487  0.17077772  0.27608810
   0.98434181  0.97911671  0.41738996
   0.66666667  0.33333333  0.13912987
   0.20417622  0.29606248  0.49604770
Direct configuration=     3
   0.00000000  0.00000000  0.00000000
   0.83334366  0.66669055  0.28055252
   0.52111192  0.51566890  0.41738236
   0.50000000  0.50000000  0.00000000
   0.16666667  0.83333333  0.13912987
   0.33131987  0.67073651  0.27866162
   0.00850086  0.49157349  0.42489367
   0.66666667  0.83333333  0.13912987
   0.00000000  0.50000000  0.00000000
   0.82926513  0.16867875  0.27866548
   0.49128312  0.00877999  0.41427149
   0.50000000 -0.00000000  0.00000000
   0.16666667  0.33333333  0.13912987
   0.32926331  0.17075153  0.27608980
   0.98445665  0.97902683  0.41739958
   0.66666667  0.33333333  0.13912987
   0.20425222  0.29595518  0.49604970
Direct configuration=     4
   0.00000000  0.00000000  0.00000000
   0.83338031  0.66665911  0.28055637
   0.52124112  0.51552420  0.41739307
   0.50000000  0.50000000  0.00000000
   0.16666667  0.83333333  0.13912987
   0.33135286  0.67067733  0.27865920
   0.00863168  0.49144832  0.42489848
   0.66666667  0.83333333  0.13912987
   0.00000000  0.50000000  0.00000000
   0.82932961  0.16865111  0.27866273
   0.49144391  0.00862458  0.41424864
   0.50000000 -0.00000000  0.00000000
   0.16666667  0.33333333  0.13912987
   0.32930754  0.17071233  0.27609189
   0.98460099  0.97889396  0.41740858
   0.66666667  0.33333333  0.13912987
   0.20434040  0.29581732  0.49605028
Direct configuration=     5
   0.00000000  0.00000000  0.00000000
   0.83342971  0.66660991  0.28055912
   0.52139523  0.51533502  0.41740516
   0.50000000  0.50000000  0.00000000
   0.16666667  0.83333333  0.13912987
   0.33139770  0.67060031  0.27865650
   0.00879035  0.49128960  0.42490578
   0.66666667  0.83333333  0.13912987
   0.00000000  0.50000000  0.00000000
   0.82940836  0.16860822  0.27865960
   0.49163726  0.00843266  0.41422312
   0.50000000 -0.00000000  0.00000000
   0.16666667  0.33333333  0.13912987
   0.32936485  0.17065655  0.27609421
   0.98477556  0.97871767  0.41741634
   0.66666667  0.33333333  0.13912987
   0.20450033  0.29569455  0.49604842
Direct configuration=     6
   0.00000000  0.00000000  0.00000000
   0.83349380  0.66654214  0.28056022
   0.52159535  0.51511584  0.41741441
   0.50000000  0.50000000  0.00000000
   0.16666667  0.83333333  0.13912987
   0.33145658  0.67050520  0.27865282
   0.00897208  0.49110385  0.42491685
   0.66666667  0.83333333  0.13912987
   0.00000000  0.50000000  0.00000000
   0.82950378  0.16855086  0.27865577
   0.49186829  0.00820136  0.41419310
   0.50000000 -0.00000000  0.00000000
   0.16666667  0.33333333  0.13912987
   0.32943559  0.17058633  0.27609549
   0.98499758  0.97852551  0.41742674
   0.66666667  0.33333333  0.13912987
   0.20468758  0.29551763  0.49604831
Direct configuration=     7
   0.00000000  0.00000000  0.00000000
   0.83358108  0.66646143  0.28056229
   0.52183123  0.51488248  0.41742390
   0.50000000  0.50000000  0.00000000
   0.16666667  0.83333333  0.13912987
   0.33153722  0.67039690  0.27865295
   0.00918907  0.49089372  0.42492895
   0.66666667  0.83333333  0.13912987
   0.00000000  0.50000000  0.00000000
   0.82962051  0.16847784  0.27865567
   0.49212764  0.00794786  0.41417196
   0.50000000 -0.00000000  0.00000000
   0.16666667  0.33333333  0.13912987
   0.32952645  0.17050052  0.27610072
   0.98524000  0.97830157  0.41743711
   0.66666667  0.33333333  0.13912987
   0.20485752  0.29524214  0.49599411
Direct configuration=     8
   0.00000000  0.00000000  0.00000000
   0.83368763  0.66635434  0.28055325
   0.52213657  0.51467161  0.41741241
   0.50000000  0.50000000  0.00000000
   0.16666667  0.83333333  0.13912987
   0.33164177  0.67027157  0.27864942
   0.00942264  0.49065710  0.42492040
   0.66666667  0.83333333  0.13912987
   0.00000000  0.50000000  0.00000000
   0.82974639  0.16837320  0.27865130
   0.49238670  0.00768718  0.41416182
   0.50000000 -0.00000000  0.00000000
   0.16666667  0.33333333  0.13912987
   0.32964003  0.17038807  0.27610024
   0.98541889  0.97794704  0.41741563
   0.66666667  0.33333333  0.13912987
   0.20510048  0.29508840  0.49605288
Direct configuration=     9
   0.00000000  0.00000000  0.00000000
   0.83380274  0.66623774  0.28054041
   0.52225854  0.51431912  0.41743337
   0.50000000  0.50000000  0.00000000
   0.16666667  0.83333333  0.13912987
   0.33174712  0.67014842  0.27864949
   0.00968995  0.49038915  0.42493630
   0.66666667  0.83333333  0.13912987
   0.00000000  0.50000000  0.00000000
   0.82987680  0.16827597  0.27865113
   0.49264091  0.00743706  0.41414806
   0.50000000 -0.00000000  0.00000000
   0.16666667  0.33333333  0.13912987
   0.32975610  0.17027955  0.27610410
   0.98580137  0.97787094  0.41744491
   0.66666667  0.33333333  0.13912987
   0.20525534  0.29478124  0.49597820
Direct configuration=    10
   0.00000000  0.00000000  0.00000000
   0.83391157  0.66613284  0.28053998
   0.52263358  0.51417855  0.41741065
   0.50000000  0.50000000  0.00000000
   0.16666667  0.83333333  0.13912987
   0.33185399  0.67002526  0.27864678
   0.00988402  0.49019470  0.42493577
   0.66666667  0.83333333  0.13912987
   0.00000000  0.50000000  0.00000000
   0.83000020  0.16816799  0.27864834
   0.49289886  0.00717653  0.41413081
   0.50000000 -0.00000000  0.00000000
   0.16666667  0.33333333  0.13912987
   0.32986557  0.17016787  0.27610211
   0.98590284  0.97743221  0.41740993
   0.66666667  0.33333333  0.13912987
   0.20553570  0.29460880  0.49603665
Direct configuration=    11
   0.00000000  0.00000000  0.00000000
   0.83402688  0.66600848  0.28051909
   0.52270867  0.51381782  0.41743044
   0.50000000  0.50000000  0.00000000
   0.16666667  0.83333333  0.13912987
   0.33195945  0.66989272  0.27864121
   0.01013858  0.48993109  0.42494534
   0.66666667  0.83333333  0.13912987
   0.00000000  0.50000000  0.00000000
   0.83013010  0.16806089  0.27864259
   0.49315567  0.00691664  0.41411461
   0.50000000 -0.00000000  0.00000000
   0.16666667  0.33333333  0.13912987
   0.32998016  0.17005113  0.27609998
   0.98628056  0.97738895  0.41743764
   0.66666667  0.33333333  0.13912987
   0.20584389  0.29429626  0.49601830
Direct configuration=    12
   0.00000000  0.00000000  0.00000000
   0.83415422  0.66588178  0.28051358
   0.52305190  0.51362000  0.41741597
   0.50000000  0.50000000  0.00000000
   0.16666667  0.83333333  0.13912987
   0.33209161  0.66974247  0.27863647
   0.01037540  0.48969343  0.42493442
   0.66666667  0.83333333  0.13912987
   0.00000000  0.50000000  0.00000000
   0.83027805  0.16792535  0.27863806
   0.49343627  0.00663190  0.41410693
   0.50000000 -0.00000000  0.00000000
   0.16666667  0.33333333  0.13912987
   0.33011632  0.16991137  0.27609931
   0.98647664  0.97704605  0.41742342
   0.66666667  0.33333333  0.13912987
   0.20618357  0.29399156  0.49607929
Direct configuration=    13
   0.00000000  0.00000000  0.00000000
   0.83431495  0.66574550  0.28050211
   0.52323329  0.51331090  0.41743235
   0.50000000  0.50000000  0.00000000
   0.16666667  0.83333333  0.13912987
   0.33225327  0.66959179  0.27863780
   0.01068860  0.48940509  0.42492780
   0.66666667  0.83333333  0.13912987
   0.00000000  0.50000000  0.00000000
   0.83045174  0.16778675  0.27863962
   0.49372346  0.00636508  0.41411850
   0.50000000 -0.00000000  0.00000000
   0.16666667  0.33333333  0.13912987
   0.33028376  0.16976725  0.27610627
   0.98682075  0.97690618  0.41744393
   0.66666667  0.33333333  0.13912987
   0.20632603  0.29344967  0.49601188
Direct configuration=    14
   0.00000000  0.00000000  0.00000000
   0.83446239  0.66560251  0.28050227
   0.52358548  0.51309947  0.41742232
   0.50000000  0.50000000  0.00000000
   0.16666667  0.83333333  0.13912987
   0.33240542  0.66943596  0.27863604
   0.01092635  0.48916530  0.42492218
   0.66666667  0.83333333  0.13912987
   0.00000000  0.50000000  0.00000000
   0.83060914  0.16763862  0.27863700
   0.49400502  0.00608623  0.41411277
   0.50000000 -0.00000000  0.00000000
   0.16666667  0.33333333  0.13912987
   0.33043779  0.16961905  0.27610890
   0.98689174  0.97634269  0.41739012
   0.66666667  0.33333333  0.13912987
   0.20672147  0.29334718  0.49605244
Direct configuration=    15
   0.00000000  0.00000000  0.00000000
   0.83458949  0.66544375  0.28047996
   0.52367182  0.51274257  0.41743676
   0.50000000  0.50000000  0.00000000
   0.16666667  0.83333333  0.13912987
   0.33253970  0.66929424  0.27863514
   0.01118488  0.48887705  0.42492744
   0.66666667  0.83333333  0.13912987
   0.00000000  0.50000000  0.00000000
   0.83075369  0.16751038  0.27863436
   0.49423446  0.00585309  0.41411460
   0.50000000 -0.00000000  0.00000000
   0.16666667  0.33333333  0.13912987
   0.33057530  0.16948673  0.27611173
   0.98734146  0.97641522  0.41743748
   0.66666667  0.33333333  0.13912987
   0.20682833  0.29299623  0.49597314
Direct configuration=    16
   0.00000000  0.00000000  0.00000000
   0.83468720  0.66535721  0.28048546
   0.52401634  0.51271496  0.41740784
   0.50000000  0.50000000  0.00000000
   0.16666667  0.83333333  0.13912987
   0.33264127  0.66919518  0.27863503
   0.01130444  0.48876153  0.42491298
   0.66666667  0.83333333  0.13912987
   0.00000000  0.50000000  0.00000000
   0.83085149  0.16740336  0.27863398
   0.49440290  0.00567692  0.41411623
   0.50000000 -0.00000000  0.00000000
   0.16666667  0.33333333  0.13912987
   0.33067124  0.16938209  0.27611240
   0.98730360  0.97596962  0.41738839
   0.66666667  0.33333333  0.13912987
   0.20707222  0.29292110  0.49602972
Direct configuration=    17
   0.00000000  0.00000000  0.00000000
   0.83478126  0.66525274  0.28046690
   0.52403918  0.51246924  0.41741826
   0.50000000  0.50000000  0.00000000
   0.16666667  0.83333333  0.13912987
   0.33272979  0.66909930  0.27863205
   0.01148204  0.48857390  0.42491250
   0.66666667  0.83333333  0.13912987
   0.00000000  0.50000000  0.00000000
   0.83094350  0.16731168  0.27863070
   0.49453636  0.00553680  0.41412241
   0.50000000 -0.00000000  0.00000000
   0.16666667  0.33333333  0.13912987
   0.33076131  0.16928901  0.27611192
   0.98757106  0.97598418  0.41740763
   0.66666667  0.33333333  0.13912987
   0.20725701  0.29272045  0.49600472
Direct configuration=    18
   0.00000000  0.00000000  0.00000000
   0.83488510  0.66514758  0.28046253
   0.52427278  0.51234086  0.41740335
   0.50000000  0.50000000  0.00000000
   0.16666667  0.83333333  0.13912987
   0.33283617  0.66899482  0.27863089
   0.01164640  0.48840616  0.42491096
   0.66666667  0.83333333  0.13912987
   0.00000000  0.50000000  0.00000000
   0.83104539  0.16720161  0.27862962
   0.49469524  0.00537152  0.41412519
   0.50000000 -0.00000000  0.00000000
   0.16666667  0.33333333  0.13912987
   0.33086160  0.16918365  0.27611156
   0.98769910  0.97575220  0.41739395
   0.66666667  0.33333333  0.13912987
   0.20748031  0.29252471  0.49601874
Direct configuration=    19
   0.00000000  0.00000000  0.00000000
   0.83501006  0.66502013  0.28045268
   0.52443890  0.51210733  0.41740245
   0.50000000  0.50000000  0.00000000
   0.16666667  0.83333333  0.13912987
   0.33295225  0.66887004  0.27862842
   0.01186467  0.48818455  0.42492572
   0.66666667  0.83333333  0.13912987
   0.00000000  0.50000000  0.00000000
   0.83116559  0.16708128  0.27862725
   0.49489030  0.00516990  0.41411596
   0.50000000 -0.00000000  0.00000000
   0.16666667  0.33333333  0.13912987
   0.33097534  0.16906532  0.27610964
   0.98793939  0.97559825  0.41739664
   0.66666667  0.33333333  0.13912987
   0.20770408  0.29231891  0.49600693
Direct configuration=    20
   0.00000000  0.00000000  0.00000000
   0.83515615  0.66487353  0.28044290
   0.52472272  0.51193787  0.41738400
   0.50000000  0.50000000  0.00000000
   0.16666667  0.83333333  0.13912987
   0.33309726  0.66872612  0.27862519
   0.01209369  0.48795164  0.42492487
   0.66666667  0.83333333  0.13912987
   0.00000000  0.50000000  0.00000000
   0.83130552  0.16693149  0.27862456
   0.49509906  0.00495690  0.41411928
   0.50000000 -0.00000000  0.00000000
   0.16666667  0.33333333  0.13912987
   0.33111472  0.16892071  0.27610438
   0.98811316  0.97532206  0.41738091
   0.66666667  0.33333333  0.13912987
   0.20786685  0.29218606  0.49606195
Direct configuration=    21
   0.00000000  0.00000000  0.00000000
   0.83530052  0.66472875  0.28042858
   0.52474221  0.51156307  0.41741441
   0.50000000  0.50000000  0.00000000
   0.16666667  0.83333333  0.13912987
   0.33323000  0.66858481  0.27862177
   0.01233789  0.48770936  0.42494619
   0.66666667  0.83333333  0.13912987
   0.00000000  0.50000000  0.00000000
   0.83144308  0.16679498  0.27862162
   0.49530159  0.00474973  0.41410859
   0.50000000 -0.00000000  0.00000000
   0.16666667  0.33333333  0.13912987
   0.33124437  0.16878776  0.27610217
   0.98849792  0.97531709  0.41741528
   0.66666667  0.33333333  0.13912987
   0.20801808  0.29204530  0.49603084
Direct configuration=    22
   0.00000000  0.00000000  0.00000000
   0.83538060  0.66464911  0.28044530
   0.52511010  0.51158387  0.41738520
   0.50000000  0.50000000  0.00000000
   0.16666667  0.83333333  0.13912987
   0.33331858  0.66849367  0.27862263
   0.01241637  0.48763248  0.42495045
   0.66666667  0.83333333  0.13912987
   0.00000000  0.50000000  0.00000000
   0.83153225  0.16670430  0.27862291
   0.49545634  0.00459392  0.41409579
   0.50000000 -0.00000000  0.00000000
   0.16666667  0.33333333  0.13912987
   0.33132660  0.16870383  0.27610138
   0.98847541  0.97494713  0.41738594
   0.66666667  0.33333333  0.13912987
   0.20809582  0.29199107  0.49608998
Direct configuration=    23
   0.00000000  0.00000000  0.00000000
   0.83542852  0.66460294  0.28043721
   0.52504862  0.51142439  0.41740523
   0.50000000  0.50000000  0.00000000
   0.16666667  0.83333333  0.13912987
   0.33335613  0.66844837  0.27862149
   0.01250016  0.48755065  0.42495950
   0.66666667  0.83333333  0.13912987
   0.00000000  0.50000000  0.00000000
   0.83157838  0.16666775  0.27862189
   0.49551699  0.00453506  0.41409340
   0.50000000 -0.00000000  0.00000000
   0.16666667  0.33333333  0.13912987
   0.33136701  0.16866378  0.27610092
   0.98863980  0.97501537  0.41740716
   0.66666667  0.33333333  0.13912987
   0.20812473  0.29193643  0.49606141
Direct configuration=    24
   0.00000000  0.00000000  0.00000000
   0.83548249  0.66454876  0.28043722
   0.52512373  0.51134419  0.41740734
   0.50000000  0.50000000  0.00000000
   0.16666667  0.83333333  0.13912987
   0.33340934  0.66839259  0.27862157
   0.01257128  0.48748008  0.42496040
   0.66666667  0.83333333  0.13912987
   0.00000000  0.50000000  0.00000000
   0.83163339  0.16661396  0.27862208
   0.49559589  0.00445643  0.41409424
   0.50000000 -0.00000000  0.00000000
   0.16666667  0.33333333  0.13912987
   0.33141957  0.16861014  0.27610071
   0.98871762  0.97493616  0.41740866
   0.66666667  0.33333333  0.13912987
   0.20818677  0.29188898  0.49606777
Direct configuration=    25
   0.00000000  0.00000000  0.00000000
   0.83555089  0.66448483  0.28043574
   0.52521153  0.51125222  0.41740908
   0.50000000  0.50000000  0.00000000
   0.16666667  0.83333333  0.13912987
   0.33347808  0.66832832  0.27862095
   0.01265894  0.48739700  0.42495964
   0.66666667  0.83333333  0.13912987
   0.00000000  0.50000000  0.00000000
   0.83170053  0.16654831  0.27862168
   0.49568870  0.00436796  0.41409728
   0.50000000 -0.00000000  0.00000000
   0.16666667  0.33333333  0.13912987
   0.33148729  0.16854688  0.27609982
   0.98881400  0.97485387  0.41741070
   0.66666667  0.33333333  0.13912987
   0.20823438  0.29178025  0.49608456
Direct configuration=    26
   0.00000000  0.00000000  0.00000000
   0.83562927  0.66440550  0.28043343
   0.52528366  0.51112458  0.41741480
   0.50000000  0.50000000  0.00000000
   0.16666667  0.83333333  0.13912987
   0.33355618  0.66825022  0.27862094
   0.01276081  0.48729349  0.42495763
   0.66666667  0.83333333  0.13912987
   0.00000000  0.50000000  0.00000000
   0.83177738  0.16646950  0.27862157
   0.49578701  0.00426738  0.41410138
   0.50000000 -0.00000000  0.00000000
   0.16666667  0.33333333  0.13912987
   0.33156552  0.16846927  0.27609959
   0.98892381  0.97475476  0.41741152
   0.66666667  0.33333333  0.13912987
   0.20835572  0.29171320  0.49610646
Direct configuration=    27
   0.00000000  0.00000000  0.00000000
   0.83571455  0.66431465  0.28043258
   0.52539550  0.51100093  0.41741677
   0.50000000  0.50000000  0.00000000
   0.16666667  0.83333333  0.13912987
   0.33364261  0.66816239  0.27862031
   0.01287935  0.48716911  0.42496213
   0.66666667  0.83333333  0.13912987
   0.00000000  0.50000000  0.00000000
   0.83186294  0.16638055  0.27862092
   0.49590337  0.00414853  0.41410196
   0.50000000 -0.00000000  0.00000000
   0.16666667  0.33333333  0.13912987
   0.33164716  0.16838303  0.27609983
   0.98906231  0.97466732  0.41741886
   0.66666667  0.33333333  0.13912987
   0.20846547  0.29160300  0.49612897
Direct configuration=    28
   0.00000000  0.00000000  0.00000000
   0.83580664  0.66422368  0.28043501
   0.52549810  0.51082944  0.41742852
   0.50000000  0.50000000  0.00000000
   0.16666667  0.83333333  0.13912987
   0.33373137  0.66806414  0.27861893
   0.01301276  0.48703671  0.42497639
   0.66666667  0.83333333  0.13912987
   0.00000000  0.50000000  0.00000000
   0.83195735  0.16628832  0.27861937
   0.49604330  0.00400524  0.41409283
   0.50000000 -0.00000000  0.00000000
   0.16666667  0.33333333  0.13912987
   0.33173492  0.16829423  0.27610133
   0.98922929  0.97455748  0.41742967
   0.66666667  0.33333333  0.13912987
   0.20857566  0.29153139  0.49613785
Direct configuration=    29
   0.00000000  0.00000000  0.00000000
   0.83589778  0.66412743  0.28044238
   0.52569119  0.51070284  0.41742924
   0.50000000  0.50000000  0.00000000
   0.16666667  0.83333333  0.13912987
   0.33382322  0.66796246  0.27861827
   0.01313075  0.48691636  0.42498684
   0.66666667  0.83333333  0.13912987
   0.00000000  0.50000000  0.00000000
   0.83205823  0.16619514  0.27861906
   0.49620782  0.00384021  0.41407913
   0.50000000 -0.00000000  0.00000000
   0.16666667  0.33333333  0.13912987
   0.33182491  0.16819918  0.27610390
   0.98937376  0.97439614  0.41743718
   0.66666667  0.33333333  0.13912987
   0.20867432  0.29142203  0.49615562
Direct configuration=    30
   0.00000000  0.00000000  0.00000000
   0.83599343  0.66404248  0.28043786
   0.52568979  0.51045570  0.41745792
   0.50000000  0.50000000  0.00000000
   0.16666667  0.83333333  0.13912987
   0.33389678  0.66786076  0.27861647
   0.01327495  0.48678074  0.42500077
   0.66666667  0.83333333  0.13912987
   0.00000000  0.50000000  0.00000000
   0.83215888  0.16611953  0.27861767
   0.49635275  0.00369124  0.41406892
   0.50000000 -0.00000000  0.00000000
   0.16666667  0.33333333  0.13912987
   0.33191125  0.16811224  0.27610667
   0.98960035  0.97436159  0.41745855
   0.66666667  0.33333333  0.13912987
   0.20882856  0.29133115  0.49612334
Direct configuration=    31
   0.00000000  0.00000000  0.00000000
   0.83601739  0.66401136  0.28044785
   0.52590996  0.51054089  0.41743255
   0.50000000  0.50000000  0.00000000
   0.16666667  0.83333333  0.13912987
   0.33393520  0.66782835  0.27861977
   0.01328729  0.48676020  0.42499366
   0.66666667  0.83333333  0.13912987
   0.00000000  0.50000000  0.00000000
   0.83218929  0.16608089  0.27862093
   0.49640454  0.00364060  0.41407494
   0.50000000 -0.00000000  0.00000000
   0.16666667  0.33333333  0.13912987
   0.33194700  0.16807762  0.27610956
   0.98953550  0.97417641  0.41744061
   0.66666667  0.33333333  0.13912987
   0.20885628  0.29127904  0.49613213
Direct configuration=    32
   0.00000000  0.00000000  0.00000000
   0.83603216  0.66399743  0.28044457
   0.52589571  0.51049996  0.41743713
   0.50000000  0.50000000  0.00000000
   0.16666667  0.83333333  0.13912987
   0.33394787  0.66781512  0.27862010
   0.01331010  0.48673846  0.42499351
   0.66666667  0.83333333  0.13912987
   0.00000000  0.50000000  0.00000000
   0.83220237  0.16606787  0.27862129
   0.49642028  0.00362475  0.41407788
   0.50000000 -0.00000000  0.00000000
   0.16666667  0.33333333  0.13912987
   0.33196037  0.16806379  0.27611045
   0.98957635  0.97419001  0.41744513
   0.66666667  0.33333333  0.13912987
   0.20888533  0.29125357  0.49611398
Direct configuration=    33
   0.00000000  0.00000000  0.00000000
   0.83605009  0.66397957  0.28044219
   0.52591334  0.51047592  0.41743709
   0.50000000  0.50000000  0.00000000
   0.16666667  0.83333333  0.13912987
   0.33396753  0.66779749  0.27862127
   0.01333187  0.48671759  0.42498865
   0.66666667  0.83333333  0.13912987
   0.00000000  0.50000000  0.00000000
   0.83221975  0.16604777  0.27862252
   0.49644213  0.00360246  0.41408406
   0.50000000 -0.00000000  0.00000000
   0.16666667  0.33333333  0.13912987
   0.33197978  0.16804382  0.27611202
   0.98960057  0.97417229  0.41744507
   0.66666667  0.33333333  0.13912987
   0.20894812  0.29119644  0.49609675
Direct configuration=    34
   0.00000000  0.00000000  0.00000000
   0.83607235  0.66395762  0.28043908
   0.52595310  0.51046483  0.41743252
   0.50000000  0.50000000  0.00000000
   0.16666667  0.83333333  0.13912987
   0.33399289  0.66777632  0.27862261
   0.01335732  0.48669267  0.42498066
   0.66666667  0.83333333  0.13912987
   0.00000000  0.50000000  0.00000000
   0.83224022  0.16602171  0.27862389
   0.49646476  0.00357958  0.41409431
   0.50000000 -0.00000000  0.00000000
   0.16666667  0.33333333  0.13912987
   0.33200434  0.16801859  0.27611376
   0.98961275  0.97413398  0.41744090
   0.66666667  0.33333333  0.13912987
   0.20904694  0.29110356  0.49608102
Direct configuration=    35
   0.00000000  0.00000000  0.00000000
   0.83610278  0.66392774  0.28043158
   0.52600190  0.51047167  0.41742171
   0.50000000  0.50000000  0.00000000
   0.16666667  0.83333333  0.13912987
   0.33402967  0.66775204  0.27862389
   0.01338973  0.48666097  0.42496186
   0.66666667  0.83333333  0.13912987
   0.00000000  0.50000000  0.00000000
   0.83226384  0.16598421  0.27862523
   0.49647857  0.00356567  0.41411691
   0.50000000 -0.00000000  0.00000000
   0.16666667  0.33333333  0.13912987
   0.33203863  0.16798365  0.27611465
   0.98960792  0.97408780  0.41743078
   0.66666667  0.33333333  0.13912987
   0.20917275  0.29097987  0.49607891
Direct configuration=    36
   0.00000000  0.00000000  0.00000000
   0.83614431  0.66389116  0.28041990
   0.52604037  0.51046958  0.41740925
   0.50000000  0.50000000  0.00000000
   0.16666667  0.83333333  0.13912987
   0.33407863  0.66772709  0.27862439
   0.01344000  0.48661616  0.42494017
   0.66666667  0.83333333  0.13912987
   0.00000000  0.50000000  0.00000000
   0.83229205  0.16593887  0.27862592
   0.49648736  0.00356144  0.41414513
   0.50000000 -0.00000000  0.00000000
   0.16666667  0.33333333  0.13912987
   0.33208309  0.16794335  0.27611436
   0.98961276  0.97405255  0.41741803
   0.66666667  0.33333333  0.13912987
   0.20930199  0.29078709  0.49608593
Direct configuration=    37
   0.00000000  0.00000000  0.00000000
   0.83620273  0.66383323  0.28040435
   0.52608011  0.51045101  0.41739339
   0.50000000  0.50000000  0.00000000
   0.16666667  0.83333333  0.13912987
   0.33414622  0.66769244  0.27862487
   0.01352150  0.48653472  0.42491945
   0.66666667  0.83333333  0.13912987
   0.00000000  0.50000000  0.00000000
   0.83232761  0.16587229  0.27862620
   0.49649192  0.00355636  0.41417816
   0.50000000 -0.00000000  0.00000000
   0.16666667  0.33333333  0.13912987
   0.33214210  0.16788519  0.27611223
   0.98961743  0.97398975  0.41739780
   0.66666667  0.33333333  0.13912987
   0.20946768  0.29064718  0.49610824
Direct configuration=    38
   0.00000000  0.00000000  0.00000000
   0.83627948  0.66375199  0.28038948
   0.52613149  0.51039574  0.41737921
   0.50000000  0.50000000  0.00000000
   0.16666667  0.83333333  0.13912987
   0.33422761  0.66764192  0.27862682
   0.01363538  0.48641620  0.42491259
   0.66666667  0.83333333  0.13912987
   0.00000000  0.50000000  0.00000000
   0.83237818  0.16579135  0.27862787
   0.49652108  0.00352724  0.41420411
   0.50000000 -0.00000000  0.00000000
   0.16666667  0.33333333  0.13912987
   0.33221428  0.16781317  0.27611018
   0.98967173  0.97394344  0.41738437
   0.66666667  0.33333333  0.13912987
   0.20958769  0.29052579  0.49611091
Direct configuration=    39
   0.00000000  0.00000000  0.00000000
   0.83635907  0.66367699  0.28038432
   0.52624772  0.51034520  0.41736305
   0.50000000  0.50000000  0.00000000
   0.16666667  0.83333333  0.13912987
   0.33430568  0.66758624  0.27862627
   0.01372445  0.48633158  0.42491941
   0.66666667  0.83333333  0.13912987
   0.00000000  0.50000000  0.00000000
   0.83243696  0.16571604  0.27862723
   0.49657694  0.00347288  0.41420822
   0.50000000 -0.00000000  0.00000000
   0.16666667  0.33333333  0.13912987
   0.33228430  0.16774632  0.27610621
   0.98972202  0.97382620  0.41736732
   0.66666667  0.33333333  0.13912987
   0.20958282  0.29046661  0.49613733
Direct configuration=    40
   0.00000000  0.00000000  0.00000000
   0.83639963  0.66363724  0.28037825
   0.52617756  0.51022298  0.41737967
   0.50000000  0.50000000  0.00000000
   0.16666667  0.83333333  0.13912987
   0.33434123  0.66755294  0.27862598
   0.01377574  0.48627952  0.42492928
   0.66666667  0.83333333  0.13912987
   0.00000000  0.50000000  0.00000000
   0.83247236  0.16568304  0.27862676
   0.49661210  0.00343895  0.41420788
   0.50000000 -0.00000000  0.00000000
   0.16666667  0.33333333  0.13912987
   0.33231622  0.16771714  0.27610493
   0.98982617  0.97387072  0.41737835
   0.66666667  0.33333333  0.13912987
   0.20960094  0.29045105  0.49611047
Direct configuration=    41
   0.00000000  0.00000000  0.00000000
   0.83640353  0.66363246  0.28037914
   0.52619878  0.51023155  0.41737667
   0.50000000  0.50000000  0.00000000
   0.16666667  0.83333333  0.13912987
   0.33434650  0.66754897  0.27862611
   0.01377566  0.48627842  0.42492853
   0.66666667  0.83333333  0.13912987
   0.00000000  0.50000000  0.00000000
   0.83247617  0.16567767  0.27862684
   0.49661609  0.00343448  0.41420839
   0.50000000 -0.00000000  0.00000000
   0.16666667  0.33333333  0.13912987
   0.33232057  0.16771265  0.27610471
   0.98981781  0.97384992  0.41737555
   0.66666667  0.33333333  0.13912987
   0.20960176  0.29045121  0.49611644
Direct configuration=    42
   0.00000000  0.00000000  0.00000000
   0.83640353  0.66363246  0.28037914
   0.52619878  0.51023155  0.41737667
   0.50000000  0.50000000  0.00000000
   0.16666667  0.83333333  0.13912987
   0.33434650  0.66754897  0.27862611
   0.01377566  0.48627842  0.42492853
   0.66666667  0.83333333  0.13912987
   0.00000000  0.50000000  0.00000000
   0.83247617  0.16567767  0.27862684
   0.49661609  0.00343448  0.41420839
   0.50000000 -0.00000000  0.00000000
   0.16666667  0.33333333  0.13912987
   0.33232057  0.16771265  0.27610471
   0.98981781  0.97384992  0.41737555
   0.66666667  0.33333333  0.13912987
   0.20960176  0.29045121  0.49611644
