 vasp.6.2.0 18Jan21 (build Jan 15 2025 16:08:48) gamma-only                     
  
 executed on             LinuxIFC date 2025.02.27  11:18:55
 running on   32 total cores
 distrk:  each k-point on   32 cores,    1 groups
 distr:  one band on NCORE=   8 cores,    4 groups


--------------------------------------------------------------------------------------------------------


 INCAR:
   SYSTEM = LiMoS2
   NWRITE = 2
   ISTART = 0
   ICHARG = 1
   ISPIN = 1
   VOSKOWN = 1
   LMAXMIX = 6
   IVDW = 11
   NELM = 120
   NELMIN = 2
   NELMDL = 10
   ENCUT = 400.0
   EDIFF = 1E-05
   LREAL = Auto
   EDIFFG = -0.02
   IBRION = 2
   IWAVPR = 1
   NSW = 1000
   ISIF = 2
   SIGMA = 0.05
   IALGO = 38
   ISMEAR = 0
   SIGMA = 0.05
   LORBIT = 11
   LELF = .FALSE.
   LVTOT = .FALSE.
   NEDOS = 903
   NPAR = 4
   NNODE = 8
   NCORE = 8

 POTCAR:    PAW_PBE Mo 08Apr2002                  
 POTCAR:    PAW_PBE S 06Sep2000                   
 POTCAR:    PAW_PBE Li 17Jan2003                  
 POTCAR:    PAW_PBE Mo 08Apr2002                  
   VRHFIN =Mo: 4p5s4d                                                                               
   LEXCH  = PE                                                                                      
   EATOM  =   217.5176 eV,   15.9871 Ry                                                             
                                                                                                    
   TITEL  = PAW_PBE Mo 08Apr2002                                                                    
   LULTRA =        F    use ultrasoft PP ?                                                          
   IUNSCR =        1    unscreen: 0-lin 1-nonlin 2-no                                               
   RPACOR =    2.200    partial core radius                                                         
   POMASS =   95.940; ZVAL   =    6.000    mass and valenz                                          
   RCORE  =    2.750    outmost cutoff radius                                                       
   RWIGS  =    2.750; RWIGS  =    1.455    wigner-seitz radius (au A)                               
   ENMAX  =  224.584; ENMIN  =  168.438 eV                                                          
   RCLOC  =    2.111    cutoff for local pot                                                        
   LCOR   =        T    correct aug charges                                                         
   LPAW   =        T    paw PP                                                                      
   EAUG   =  345.278                                                                                
   DEXC   =    0.000                                                                                
   RMAX   =    2.821    core radius for proj-oper                                                   
   RAUG   =    1.300    factor for augmentation sphere                                              
   RDEP   =    2.815    radius for radial grids                                                     
   RDEPT  =    2.211    core radius for aug-charge                                                  
                                                                                                    
   Atomic configuration                                                                             
   12 entries                                                                                       
     n  l   j            E        occ.                                                              
     1  0  0.50    -19819.0341   2.0000                                                             
     2  0  0.50     -2799.0127   2.0000                                                             
     2  1  1.50     -2502.0276   6.0000                                                             
     3  0  0.50      -476.4448   2.0000                                                             
     3  1  1.50      -379.1496   6.0000                                                             
     3  2  2.50      -220.9367  10.0000                                                             
     4  0  0.50       -64.3378   2.0000                                                             
     4  1  1.50       -38.4773   6.0000                                                             
     4  2  2.50        -3.7535   5.0000                                                             
     5  0  0.50        -4.0862   1.0000                                                             
     5  1  0.50        -2.7701   0.0000                                                             
     4  3  2.50        -1.3606   0.0000                                                             
   Description                                                                                      
     l       E           TYP  RCUT    TYP  RCUT                                                     
     2     -3.7534765     23  2.500                                                                 
     2     -5.1140591     23  2.500                                                                 
     0     -4.0861560     23  2.600                                                                 
     0     13.6058260     23  2.600                                                                 
     1      5.4423304     23  2.750                                                                 
     1     27.2116520     23  2.750                                                                 
  local pseudopotential read in
  partial core-charges read in
  partial kinetic energy density read in
  atomic valenz-charges read in
  non local Contribution for L=           2  read in
    real space projection operators read in
  non local Contribution for L=           2  read in
    real space projection operators read in
  non local Contribution for L=           0  read in
    real space projection operators read in
  non local Contribution for L=           0  read in
    real space projection operators read in
  non local Contribution for L=           1  read in
    real space projection operators read in
  non local Contribution for L=           1  read in
    real space projection operators read in
    PAW grid and wavefunctions read in
 
   number of l-projection  operators is LMAX  =           6
   number of lm-projection operators is LMMAX =          18
 
 POTCAR:    PAW_PBE S 06Sep2000                   
   VRHFIN =S : s2p4                                                                                 
   LEXCH  = PE                                                                                      
   EATOM  =   276.8230 eV,   20.3459 Ry                                                             
                                                                                                    
   TITEL  = PAW_PBE S 06Sep2000                                                                     
   LULTRA =        F    use ultrasoft PP ?                                                          
   IUNSCR =        1    unscreen: 0-lin 1-nonlin 2-no                                               
   RPACOR =    1.500    partial core radius                                                         
   POMASS =   32.066; ZVAL   =    6.000    mass and valenz                                          
   RCORE  =    1.900    outmost cutoff radius                                                       
   RWIGS  =    2.200; RWIGS  =    1.164    wigner-seitz radius (au A)                               
   ENMAX  =  258.689; ENMIN  =  194.016 eV                                                          
   ICORE  =        2    local potential                                                             
   LCOR   =        T    correct aug charges                                                         
   LPAW   =        T    paw PP                                                                      
   EAUG   =  335.092                                                                                
   DEXC   =    0.000                                                                                
   RMAX   =    1.942    core radius for proj-oper                                                   
   RAUG   =    1.300    factor for augmentation sphere                                              
   RDEP   =    1.954    radius for radial grids                                                     
   RDEPT  =    1.744    core radius for aug-charge                                                  
                                                                                                    
   Atomic configuration                                                                             
    6 entries                                                                                       
     n  l   j            E        occ.                                                              
     1  0  0.50     -2405.8406   2.0000                                                             
     2  0  0.50      -211.7007   2.0000                                                             
     2  1  1.50      -156.4958   6.0000                                                             
     3  0  0.50       -17.2562   2.0000                                                             
     3  1  0.50        -7.0085   4.0000                                                             
     3  2  1.50        -6.8029   0.0000                                                             
   Description                                                                                      
     l       E           TYP  RCUT    TYP  RCUT                                                     
     0    -17.2561641     23  1.900                                                                 
     0    -15.8743224     23  1.900                                                                 
     1     -7.0085400     23  1.900                                                                 
     1     -2.7779785     23  1.900                                                                 
     2     -6.8029130     23  1.900                                                                 
  local pseudopotential read in
  partial core-charges read in
  partial kinetic energy density read in
  atomic valenz-charges read in
  non local Contribution for L=           0  read in
    real space projection operators read in
  non local Contribution for L=           0  read in
    real space projection operators read in
  non local Contribution for L=           1  read in
    real space projection operators read in
  non local Contribution for L=           1  read in
    real space projection operators read in
    PAW grid and wavefunctions read in
 
   number of l-projection  operators is LMAX  =           4
   number of lm-projection operators is LMMAX =           8
 
 POTCAR:    PAW_PBE Li 17Jan2003                  
   VRHFIN =Li: s1p0                                                                                 
   LEXCH  = PE                                                                                      
   EATOM  =     5.3001 eV,    0.3895 Ry                                                             
                                                                                                    
   TITEL  = PAW_PBE Li 17Jan2003                                                                    
   LULTRA =        F    use ultrasoft PP ?                                                          
   IUNSCR =        1    unscreen: 0-lin 1-nonlin 2-no                                               
   RPACOR =    1.500    partial core radius                                                         
   POMASS =    7.010; ZVAL   =    1.000    mass and valenz                                          
   RCORE  =    2.050    outmost cutoff radius                                                       
   RWIGS  =    2.600; RWIGS  =    1.376    wigner-seitz radius (au A)                               
   ENMAX  =  140.000; ENMIN  =  100.000 eV                                                          
   ICORE  =        2    local potential                                                             
   LCOR   =        T    correct aug charges                                                         
   LPAW   =        T    paw PP                                                                      
   EAUG   =  331.638                                                                                
   DEXC   =    0.000                                                                                
   RMAX   =    2.098    core radius for proj-oper                                                   
   RAUG   =    1.300    factor for augmentation sphere                                              
   RDEP   =    2.094    radius for radial grids                                                     
   RDEPT  =    1.810    core radius for aug-charge                                                  
                                                                                                    
   Atomic configuration                                                                             
    4 entries                                                                                       
     n  l   j            E        occ.                                                              
     1  0  0.50       -51.8549   2.0000                                                             
     2  0  0.50        -2.8742   1.0000                                                             
     2  1  0.50        -1.3606   0.0000                                                             
     3  2  1.50        -1.3606   0.0000                                                             
   Description                                                                                      
     l       E           TYP  RCUT    TYP  RCUT                                                     
     0     -2.8742052     23  2.050                                                                 
     0     27.2116520     23  2.050                                                                 
     1     -1.3605826     23  2.050                                                                 
     2     -1.3605826     23  2.050                                                                 
  local pseudopotential read in
  partial core-charges read in
  partial kinetic energy density read in
  atomic valenz-charges read in
  non local Contribution for L=           0  read in
    real space projection operators read in
  non local Contribution for L=           0  read in
    real space projection operators read in
  non local Contribution for L=           1  read in
    real space projection operators read in
    PAW grid and wavefunctions read in
 
   number of l-projection  operators is LMAX  =           3
   number of lm-projection operators is LMMAX =           5
 
 Optimization of the real space projectors (new method)

 maximal supplied QI-value         = 13.61
 optimisation between [QCUT,QGAM] = [ 10.20, 20.41] = [ 29.16,116.64] Ry 
 Optimized for a Real-space Cutoff    1.55 Angstroem

   l    n(q)    QCUT    max X(q) W(low)/X(q) W(high)/X(q)  e(spline) 
   2      9    10.205    80.908    0.50E-03    0.10E-02    0.77E-06
   2      9    10.205    79.000    0.50E-03    0.10E-02    0.77E-06
   0      9    10.205    52.066    0.67E-04    0.52E-04    0.18E-06
   0      9    10.205    24.514    0.55E-04    0.43E-04    0.15E-06
   1      9    10.205    16.033    0.32E-03    0.32E-03    0.31E-06
   1      9    10.205    11.179    0.26E-03    0.25E-03    0.25E-06
 Optimization of the real space projectors (new method)

 maximal supplied QI-value         = 19.84
 optimisation between [QCUT,QGAM] = [ 10.12, 20.44] = [ 28.68,116.96] Ry 
 Optimized for a Real-space Cutoff    1.23 Angstroem

   l    n(q)    QCUT    max X(q) W(low)/X(q) W(high)/X(q)  e(spline) 
   0      7    10.119   187.594    0.62E-04    0.28E-03    0.52E-07
   0      7    10.119   164.243    0.61E-04    0.28E-03    0.52E-07
   1      7    10.119    67.533    0.45E-03    0.63E-03    0.13E-06
   1      7    10.119    50.729    0.44E-03    0.62E-03    0.12E-06
 Optimization of the real space projectors (new method)

 maximal supplied QI-value         = 18.33
 optimisation between [QCUT,QGAM] = [ 10.08, 20.35] = [ 28.46,115.93] Ry 
 Optimized for a Real-space Cutoff    1.16 Angstroem

   l    n(q)    QCUT    max X(q) W(low)/X(q) W(high)/X(q)  e(spline) 
   0      7    10.082    33.825    0.44E-03    0.14E-03    0.78E-07
   0      7    10.082     8.944    0.33E-03    0.12E-03    0.56E-07
   1      6    10.082     4.214    0.33E-03    0.37E-03    0.39E-07
  PAW_PBE Mo 08Apr2002                  :
 energy of atom  1       EATOM= -217.5176
 kinetic energy error for atom=    0.0025 (will be added to EATOM!!)
  PAW_PBE S 06Sep2000                   :
 energy of atom  2       EATOM= -276.8230
 kinetic energy error for atom=    0.0046 (will be added to EATOM!!)
  PAW_PBE Li 17Jan2003                  :
 energy of atom  3       EATOM=   -5.3001
 kinetic energy error for atom=    0.0000 (will be added to EATOM!!)
 
 
 POSCAR: mo3s13:
  positions in direct lattice
  No initial velocities read in
 exchange correlation table for  LEXCH =        8
   RHO(1)=    0.500       N(1)  =     2000
   RHO(2)=  100.500       N(2)  =     4000

 VTST: version 4.0, (05/15/20)

 CHAIN: initializing optimizer
 
 OPT: Using VASP Conjugate-Gradient optimizer
 CHAIN: Read ICHAIN            0
 
 POSCAR: mo3s13:
  positions in direct lattice
  No initial velocities read in
 


--------------------------------------------------------------------------------------------------------


 ion  position               nearest neighbor table
   1  0.537  0.087  0.671- 135 2.29  52 2.33  99 2.35 209 2.39 174 2.58 203 2.61  36 2.75  25 2.82

   2  0.866  0.423  0.663-  95 2.13 112 2.38 131 2.39  64 2.40 211 2.45 149 2.46 191 2.86  19 3.27

   3  0.758  0.562  0.012- 115 2.32 187 2.38 221 2.39  58 2.43 256 2.48 249 2.55  12 2.92  47 3.04

   4  0.898  0.800  0.847- 217 2.13 178 2.24 201 2.28 177 2.42 167 2.92  13 3.04  17 3.26  22 3.48

   5  0.278  0.463  0.162- 165 2.35 146 2.39  71 2.39 219 2.41 128 2.42 106 2.44 120 2.47  28 2.67

   6  0.534  0.531  0.377- 157 2.31 109 2.34  89 2.40 244 2.44 183 2.51 142 2.54  30 2.71  20 3.11

   7  0.645  0.912  0.738- 108 2.34 204 2.37 224 2.39 223 2.41 214 2.49 175 2.55  37 3.16  36 3.27

   8  0.060  0.977  0.737- 132 2.22 153 2.35 248 2.39 156 2.43 102 2.50 240 2.60 197 2.64  10 2.90

   9  0.762  0.245  0.136-  77 2.27  79 2.29  76 2.31  78 2.34 145 2.44  14 2.78
  10  0.972  0.908  0.733-  94 2.37 182 2.38 132 2.45 248 2.47 177 2.49 156 2.50  17 2.75   8 2.90
                            22 2.91
  11  0.365  0.963  0.081- 230 2.22  53 2.37  59 2.40  97 2.47 105 2.49 220 2.49  16 2.83
  12  0.700  0.508  0.114- 221 2.24 207 2.30  91 2.33 115 2.35  84 2.37   3 2.92
  13  0.916  0.684  0.756- 130 2.32 228 2.34  66 2.41 178 2.46 201 2.50 246 2.70  34 2.75   4 3.04

  14  0.877  0.264  0.189-  78 2.29 122 2.29  79 2.36 253 2.41 252 2.43 181 2.55   9 2.78
  15  0.184  0.539  0.550-  57 2.23 199 2.30 159 2.42  80 2.47 243 2.48 161 2.56  40 2.73
  16  0.417  0.918  0.957- 220 2.34 105 2.37 241 2.38 232 2.50 198 2.58 230 2.61  11 2.83  32 2.87
                            39 2.92
  17  0.883  0.934  0.766- 167 2.23 236 2.31  94 2.35 177 2.35 193 2.49  10 2.75  22 2.96   4 3.26

  18  0.627  0.070  0.229- 137 2.39 133 2.44 136 2.45 234 2.45  56 2.46 147 2.52  38 2.73  27 2.93
                            24 2.99  32 3.09
  19  0.728  0.385  0.567-  64 2.33 168 2.39  73 2.43 216 2.47 227 2.48 191 2.49 112 2.70  30 2.87
                             2 3.27
  20  0.585  0.491  0.224- 143 2.32 212 2.42 207 2.45  89 2.47 183 2.48 168 2.55 255 2.57  30 2.81
                             6 3.11
  21  0.351  0.087  0.315- 121 2.22  59 2.26  54 2.36 203 2.43 124 2.47  48 2.81  52 3.04
  22  0.848  0.853  0.538- 238 2.32 182 2.33  94 2.43 167 2.45 201 2.57  62 2.73  10 2.91  17 2.96
                             4 3.48
  23  0.207  0.682  0.476- 205 2.28 161 2.34 192 2.43  68 2.44  80 2.58  88 2.59  45 2.70  41 2.83

  24  0.490  0.103  0.073- 213 2.38 137 2.43 210 2.45 218 2.45 136 2.50 105 2.59  26 2.82  32 2.97
                            18 2.99  44 3.00
  25  0.602  0.080  0.566- 224 2.38  52 2.39  99 2.40 206 2.42 111 2.56 136 2.67   1 2.82  36 2.86
                            37 2.97
  26  0.482  0.193  0.920- 213 2.28 210 2.39 174 2.42 235 2.46 170 2.48 154 2.59  44 2.72  24 2.82
                            27 3.07
  27  0.627  0.173  0.107-  56 2.38 145 2.47  76 2.51 174 2.54 133 2.54 154 2.59 213 2.63  38 2.81
                            18 2.93  26 3.07
  28  0.257  0.353  0.077- 165 2.29 200 2.47 123 2.47 104 2.47 120 2.48  71 2.48 146 2.60   5 2.67
                            43 3.23
  29  0.834  0.968  0.036- 113 2.15 117 2.28 175 2.33 141 2.43 193 2.57  37 2.91
  30  0.605  0.435  0.443-  89 2.35 157 2.36 168 2.40  73 2.44 227 2.49 255 2.50   6 2.71  20 2.81
                            19 2.87
  31  0.340  0.776  0.256- 176 2.31 231 2.39 148 2.39 251 2.43  98 2.53  93 2.58 245 2.60  35 2.77

  32  0.527  0.984  0.172-  82 2.38 136 2.39 241 2.42 137 2.42 105 2.42  97 2.53  39 2.83  16 2.87
                            24 2.97  18 3.09
  33  0.019  0.194  0.948- 164 2.17  96 2.35 101 2.42 188 2.54 126 2.56  61 2.57 184 2.63  42 2.85

  34  0.872  0.676  0.490- 233 2.12 130 2.33 228 2.36 254 2.38  62 2.47  13 2.75 201 3.13
  35  0.212  0.750  0.050- 251 2.21 231 2.33 155 2.38 185 2.41 169 2.42  93 2.45  31 2.77
  36  0.520  0.991  0.518- 224 2.33 135 2.37  52 2.41 223 2.46  97 2.48   1 2.75 124 2.75  25 2.86
                             7 3.27
  37  0.720  0.027  0.811- 111 2.23 117 2.31 175 2.32  99 2.40 224 2.69  29 2.91  25 2.97   7 3.16

  38  0.739  0.123  0.336- 160 2.31  56 2.34 133 2.34 125 2.43 145 2.44 234 2.54  18 2.73  27 2.81

  39  0.516  0.872  0.229- 241 2.40  82 2.42 150 2.43  60 2.45 220 2.45  97 2.49 166 2.59  32 2.83
                            16 2.92
  40  0.190  0.466  0.721- 159 2.38  57 2.40 103 2.45  83 2.46 243 2.53 146 2.55  86 2.59  15 2.73

  41  0.341  0.667  0.666- 161 2.31 192 2.31  92 2.35 242 2.40 151 2.46  50 2.62  23 2.83  45 2.88

  42  0.105  0.177  0.892- 247 2.30 188 2.42 240 2.44 101 2.45 195 2.46  61 2.57  33 2.85  43 2.91
                            48 3.41
  43  0.219  0.223  0.954- 247 2.29  74 2.37 195 2.37 200 2.43 104 2.50 123 2.62  42 2.91  48 3.00
                            28 3.23
  44  0.377  0.180  0.901- 218 2.25 210 2.31 152 2.31 235 2.36 170 2.60  26 2.72  24 3.00  74 3.14

  45  0.276  0.763  0.681- 205 2.29 192 2.31 139 2.37 151 2.46 144 2.51 198 2.70  23 2.70  41 2.88

  46  0.210  0.246  0.313- 225 2.23 129 2.34  72 2.40 188 2.48 123 2.49 180 2.57  48 2.87
  47  0.867  0.576  0.008- 256 2.20 249 2.22  67 2.32 246 2.39  63 2.40   3 3.04
  48  0.254  0.169  0.205- 195 2.36  54 2.39 121 2.45 123 2.47 225 2.54 188 2.60  21 2.81  46 2.87
                            43 3.00  42 3.41
  49  0.224  0.891  0.245- 194 2.08  93 2.13
  50  0.413  0.585  0.686-  92 2.03 162 2.28  41 2.62
  51  0.046  0.778  0.329- 138 2.08 229 2.09
  52  0.490  0.087  0.439-   1 2.33  25 2.39  36 2.41  21 3.04
  53  0.314  0.929  0.165- 176 2.07  11 2.37
  54  0.366  0.186  0.364- 186 2.21  21 2.36  48 2.39
  55  0.037  0.469  0.644-  83 2.05 100 2.05
  56  0.671  0.083  0.111-  38 2.34  27 2.38  18 2.46
  57  0.099  0.501  0.503-  15 2.23  40 2.40
  58  0.693  0.637  0.849- 208 2.07   3 2.43
  59  0.344  0.056  0.133-  21 2.26  11 2.40
  60  0.601  0.804  0.304- 150 2.00  39 2.45
  61  0.082  0.275  0.953- 184 2.09  33 2.57  42 2.57
  62  0.831  0.766  0.365- 254 2.04  34 2.47  22 2.73
  63  0.961  0.543  0.045-  67 2.05  47 2.40
  64  0.775  0.474  0.610-  19 2.33   2 2.40
  65  0.180  0.060  0.422-  90 2.07 202 2.09
  66  0.011  0.628  0.858- 196 2.12  13 2.41
  67  0.945  0.515  0.174-  63 2.05  47 2.32
  68  0.133  0.740  0.274-  88 2.00  23 2.44
  69  0.675  0.224  0.680- 206 2.05 158 2.06
  70  0.015  0.061  0.402- 237 1.99 116 2.11
  71  0.222  0.401  0.200- 120 2.08   5 2.39  28 2.48
  72  0.157  0.223  0.401- 180 2.06  46 2.40
  73  0.693  0.428  0.690- 227 2.04  19 2.43  30 2.44
  74  0.250  0.162  0.850- 152 2.08  43 2.37  44 3.14
  75  0.553  0.736  0.912- 163 2.02  87 2.22
  76  0.666  0.199  0.981-   9 2.31  27 2.51
  77  0.738  0.339  0.078- 122 2.13   9 2.27
  78  0.866  0.240  0.348-  14 2.29   9 2.34
  79  0.789  0.208  0.008-   9 2.29  14 2.36
  80  0.114  0.613  0.382- 119 2.12  15 2.47  23 2.58
  81  0.401  0.623  0.310-  98 2.12 142 2.13
  82  0.608  0.934  0.373-  32 2.38  39 2.42 224 2.51
  83  0.127  0.504  0.785-  55 2.05  40 2.46
  84  0.600  0.462  0.953- 143 2.04  12 2.37
  85  0.276  0.467  0.464- 199 1.95
  86  0.260  0.392  0.712- 172 2.03  40 2.59 159 2.70
  87  0.559  0.644  0.867- 162 1.95  75 2.22
  88  0.159  0.672  0.220-  68 2.00 196 2.57  23 2.59 257 2.73
  89  0.642  0.529  0.463-  30 2.35   6 2.40  20 2.47
  90  0.223  0.026  0.613- 239 2.04  65 2.07
  91  0.802  0.468  0.271- 187 2.04  12 2.33
  92  0.402  0.658  0.593-  50 2.03  41 2.35 257 2.98
  93  0.249  0.802  0.263-  49 2.13  35 2.45  31 2.58 231 2.77
  94  0.874  0.955  0.572-  17 2.35  10 2.37  22 2.43
  95  0.902  0.493  0.629-   2 2.13
  96  0.016  0.260  0.090- 180 2.11  33 2.35
  97  0.480  0.960  0.283-  11 2.47  36 2.48  39 2.49  32 2.53
  98  0.433  0.709  0.353- 148 2.00  81 2.12  31 2.53
  99  0.648  0.091  0.804-   1 2.35  37 2.40  25 2.40
 100  0.055  0.383  0.647-  55 2.05 103 2.06
 101  0.990  0.188  0.721- 184 2.14  33 2.42  42 2.45
 102  0.988  0.062  0.630- 240 2.08 237 2.19   8 2.50
 103  0.130  0.377  0.644- 100 2.06  40 2.45
 104  0.317  0.280  0.052- 200 2.08  28 2.47  43 2.50
 105  0.418  0.017  0.013-  16 2.37  32 2.42  11 2.49  24 2.59
 106  0.256  0.561  0.082- 128 2.06   5 2.44
 107  0.431  0.857  0.620- 245 1.99 114 2.21
 108  0.635  0.915  0.910- 214 2.06   7 2.34 135 2.76
 109  0.565  0.615  0.515- 142 2.03   6 2.34
 110  0.482  0.329  0.727- 171 2.01 140 2.13
 111  0.720  0.084  0.673-  37 2.23  25 2.56
 112  0.782  0.379  0.447- 131 2.04   2 2.38  19 2.70
 113  0.816  0.922  0.150-  29 2.15
 114  0.357  0.872  0.642- 232 2.04 198 2.09 107 2.21
 115  0.688  0.485  0.914-   3 2.32  12 2.35
 116  0.054  0.145  0.449- 250 2.01  70 2.11
 117  0.799  0.058  0.037-  29 2.28  37 2.31
 118  0.595  0.778  0.552- 166 2.05 204 2.06
 119  0.052  0.643  0.420- 229 2.02  80 2.12
 120  0.170  0.423  0.994-  71 2.08   5 2.47  28 2.48
 121  0.256  0.068  0.254-  21 2.22  48 2.45
 122  0.828  0.352  0.129-  77 2.13  14 2.29 252 2.79
 123  0.237  0.273  0.167-  28 2.47  48 2.47  46 2.49  43 2.62
 124  0.400  0.997  0.438- 203 2.08  21 2.47  36 2.75
 125  0.843  0.136  0.562- 160 2.02  38 2.43
 126  0.905  0.208  0.856- 215 2.03  33 2.56
 127  0.104  0.534  0.079- 196 1.94
 128  0.264  0.550  0.254- 106 2.06 219 2.08 257 2.26   5 2.42
 129  0.260  0.325  0.469- 172 2.11  46 2.34
 130  0.840  0.620  0.583-  13 2.32  34 2.33
 131  0.867  0.338  0.555- 112 2.04   2 2.39
 132  0.984  0.922  0.559-   8 2.22  10 2.45
 133  0.663  0.163  0.348-  38 2.34  18 2.44  27 2.54 213 2.56
 134  0.496  0.270  0.493- 186 2.02 171 2.15
 135  0.543  0.995  0.734-   1 2.29  36 2.37 108 2.76
 136  0.567  0.070  0.315-  32 2.39  18 2.45  24 2.50  25 2.67
 137  0.535  0.029  0.014-  18 2.39  32 2.42  24 2.43
 138  0.021  0.832  0.424- 189 2.04  51 2.08
 139  0.221  0.850  0.581- 144 2.03  45 2.37
 140  0.578  0.304  0.885- 154 2.06 110 2.13
 141  0.945  0.937  0.202- 189 2.11  29 2.43 193 2.75
 142  0.487  0.582  0.477- 109 2.03  81 2.13   6 2.54
 143  0.545  0.453  0.009-  84 2.04  20 2.32
 144  0.241  0.841  0.764- 139 2.03  45 2.51 230 2.62
 145  0.731  0.221  0.272-  38 2.44   9 2.44  27 2.47
 146  0.273  0.436  0.970-   5 2.39  40 2.55  28 2.60
 147  0.686  0.976  0.296- 234 2.10 173 2.11  18 2.52
 148  0.390  0.740  0.166-  98 2.00  31 2.39
 149  0.965  0.396  0.888- 211 2.04   2 2.46
 150  0.514  0.769  0.186-  60 2.00  39 2.43
 151  0.343  0.692  0.861- 242 2.07  41 2.46  45 2.46
 152  0.271  0.203  0.739-  74 2.08  44 2.31
 153  0.158  0.938  0.812- 197 2.04   8 2.35
 154  0.568  0.271  0.020- 140 2.06  27 2.59  26 2.59
 155  0.107  0.783  0.943- 169 2.07  35 2.38
 156  0.040  0.989  0.899- 248 2.05   8 2.43  10 2.50
 157  0.529  0.452  0.473-   6 2.31  30 2.36
 158  0.746  0.226  0.666-  69 2.06 216 2.07
 159  0.281  0.506  0.765- 243 2.07  40 2.38  15 2.42  86 2.70
 160  0.838  0.092  0.413- 125 2.02  38 2.31
 161  0.264  0.597  0.554-  41 2.31  23 2.34  15 2.56
 162  0.512  0.595  0.896-  87 1.95  50 2.28
 163  0.575  0.766  0.797-  75 2.02 226 2.07
 164  0.014  0.104  0.978-  33 2.17
 165  0.355  0.390  0.256-  28 2.29   5 2.35
 166  0.516  0.826  0.413- 118 2.05 223 2.21  39 2.59
 167  0.798  0.877  0.640-  17 2.23  22 2.45   4 2.92
 168  0.642  0.396  0.326-  19 2.39  30 2.40  20 2.55 255 2.70
 169  0.118  0.743  0.809- 185 2.06 155 2.07  35 2.42
 170  0.382  0.245  0.744- 235 2.07  26 2.48  44 2.60
 171  0.485  0.347  0.576- 110 2.01 134 2.15
 172  0.205  0.346  0.530-  86 2.03 129 2.11
 173  0.743  0.959  0.241- 238 2.10 147 2.11
 174  0.539  0.140  0.859- 209 2.10  26 2.42  27 2.54   1 2.58
 175  0.754  0.935  0.810-  37 2.32  29 2.33   7 2.55
 176  0.374  0.870  0.313-  53 2.07  31 2.31
 177  0.973  0.877  0.922-  17 2.35   4 2.42  10 2.49
 178  0.980  0.739  0.976-   4 2.24  13 2.46
 179  0.766  0.657  0.708- 208 2.03 246 2.12
 180  0.108  0.287  0.262-  72 2.06  96 2.11  46 2.57
 181  0.924  0.180  0.147- 215 2.10 250 2.16  14 2.55
 182  0.947  0.818  0.614- 228 2.26  22 2.33  10 2.38
 183  0.507  0.568  0.161- 212 2.12  20 2.48   6 2.51 244 2.66
 184  0.987  0.275  0.776-  61 2.09 101 2.14  33 2.63
 185  0.159  0.666  0.902- 169 2.06  35 2.41
 186  0.415  0.238  0.315- 134 2.02  54 2.21
 187  0.843  0.513  0.210-  91 2.04   3 2.38
 188  0.138  0.176  0.122-  42 2.42  46 2.48  33 2.54  48 2.60
 189  0.933  0.862  0.269- 138 2.04 141 2.11
 190  0.423  0.429  0.109- 244 2.06 255 2.08
 191  0.831  0.349  0.779- 211 2.12  19 2.49   2 2.86
 192  0.289  0.743  0.520-  45 2.31  41 2.31  23 2.43
 193  0.902  0.988  0.964- 236 2.09  17 2.49  29 2.57 141 2.75
 194  0.135  0.887  0.192- 222 2.06  49 2.08
 195  0.206  0.127  0.986-  48 2.36  43 2.37  42 2.46
 196  0.062  0.605  0.065- 127 1.94  66 2.12  88 2.57
 197  0.117  0.973  0.627- 153 2.04 239 2.16   8 2.64
 198  0.382  0.826  0.807- 114 2.09  16 2.58  45 2.70
 199  0.192  0.476  0.416-  85 1.95  15 2.30
 200  0.232  0.307  0.867- 104 2.08  43 2.43  28 2.47
 201  0.836  0.763  0.627-   4 2.28  13 2.50  22 2.57  34 3.13
 202  0.099  0.010  0.281- 222 2.05  65 2.09
 203  0.418  0.069  0.560- 124 2.08  21 2.43   1 2.61
 204  0.667  0.837  0.642- 118 2.06   7 2.37
 205  0.191  0.712  0.628-  23 2.28  45 2.29
 206  0.596  0.180  0.516-  69 2.05  25 2.42
 207  0.686  0.511  0.274-  12 2.30  20 2.45
 208  0.734  0.694  0.802- 179 2.03  58 2.07
 209  0.523  0.186  0.701- 174 2.10   1 2.39
 210  0.412  0.112  0.823-  44 2.31  26 2.39  24 2.45
 211  0.893  0.420  0.890- 149 2.04 191 2.12   2 2.45
 212  0.589  0.591  0.192- 183 2.12  20 2.42
 213  0.546  0.191  0.155-  26 2.28  24 2.38 133 2.56  27 2.63
 214  0.702  0.856  0.951- 108 2.06 226 2.17   7 2.49
 215  0.888  0.152  0.948- 126 2.03 181 2.10
 216  0.733  0.282  0.526- 158 2.07  19 2.47
 217  0.853  0.803  0.936-   4 2.13
 218  0.426  0.155  0.118-  44 2.25  24 2.45
 219  0.354  0.514  0.380- 128 2.08   5 2.41
 220  0.399  0.863  0.081-  16 2.34  39 2.45  11 2.49
 221  0.713  0.602  0.111-  12 2.24   3 2.39
 222  0.126  0.926  0.330- 202 2.05 194 2.06
 223  0.533  0.889  0.572- 166 2.21   7 2.41  36 2.46
 224  0.619  0.980  0.572-  36 2.33  25 2.38   7 2.39  82 2.51  37 2.69
 225  0.285  0.181  0.443-  46 2.23  48 2.54
 226  0.673  0.767  0.920- 163 2.07 214 2.17
 227  0.651  0.351  0.594-  73 2.04  19 2.48  30 2.49
 228  0.964  0.725  0.677- 182 2.26  13 2.34  34 2.36
 229  0.997  0.701  0.273- 119 2.02  51 2.09
 230  0.300  0.939  0.857-  11 2.22  16 2.61 144 2.62
 231  0.284  0.694  0.238- 257 1.55  35 2.33  31 2.39  93 2.77
 232  0.387  0.952  0.737- 114 2.04  16 2.50
 233  0.915  0.618  0.435-  34 2.12
 234  0.728  0.042  0.449- 147 2.10  18 2.45  38 2.54
 235  0.427  0.270  0.947- 170 2.07  44 2.36  26 2.46
 236  0.864  0.029  0.782- 193 2.09  17 2.31
 237  0.946  0.073  0.416-  70 1.99 102 2.19
 238  0.770  0.875  0.308- 173 2.10  22 2.32
 239  0.175  0.048  0.683-  90 2.04 197 2.16
 240  0.084  0.086  0.765- 102 2.08  42 2.44   8 2.60
 241  0.524  0.896  0.058-  16 2.38  39 2.40  32 2.42
 242  0.429  0.696  0.899- 151 2.07  41 2.40
 243  0.233  0.568  0.791- 159 2.07  15 2.48  40 2.53
 244  0.424  0.513  0.168- 190 2.06   6 2.44 183 2.66
 245  0.413  0.781  0.524- 107 1.99  31 2.60
 246  0.865  0.641  0.862- 179 2.12  47 2.39  13 2.70
 247  0.115  0.237  0.766-  43 2.29  42 2.30
 248  0.089  0.917  0.917- 156 2.05   8 2.39  10 2.47
 249  0.848  0.634  0.122-  47 2.22   3 2.55
 250  0.026  0.170  0.268- 116 2.01 181 2.16
 251  0.265  0.807  0.021-  35 2.21  31 2.43
 252  0.950  0.331  0.216- 253 2.02  14 2.43 122 2.79
 253  0.986  0.285  0.383- 252 2.02  14 2.41
 254  0.766  0.705  0.306-  62 2.04  34 2.38
 255  0.517  0.408  0.196- 190 2.08  30 2.50  20 2.57 168 2.70
 256  0.781  0.525  0.859-  47 2.20   3 2.48
 257  0.278  0.645  0.307- 231 1.55 128 2.26  88 2.73  92 2.98
 
  LATTYP: Found a triclinic cell.
 ALAT       =    27.2296047211
 B/A-ratio  =     1.9255385050
 C/A-ratio  =     1.2896784952
 COS(alpha) =     0.0041656668
 COS(beta)  =     0.4762328263
 COS(gamma) =     0.8726595903
  
  Lattice vectors:
  
 A1 = (  27.1203981867,   0.4023603500,  -2.4028070269)
 A2 = (  46.8094737727, -22.8471500057,   5.9965883278)
 A3 = (  14.5609005443,  23.9412761889, -21.1667133934)


Analysis of symmetry for initial positions (statically):
=====================================================================
 Subroutine PRICEL returns:
 Original cell was already a primitive cell.
 

 Routine SETGRP: Setting up the symmetry group for a 
 triclinic supercell.


 Subroutine GETGRP returns: Found  1 space group operations
 (whereof  1 operations were pure point group operations)
 out of a pool of  2 trial point group operations.


The static configuration has the point symmetry C_1 .


Analysis of symmetry for dynamics (positions and initial velocities):
=====================================================================
 Subroutine PRICEL returns:
 Original cell was already a primitive cell.
 

 Routine SETGRP: Setting up the symmetry group for a 
 triclinic supercell.


 Subroutine GETGRP returns: Found  1 space group operations
 (whereof  1 operations were pure point group operations)
 out of a pool of  2 trial point group operations.


The dynamic configuration has the point symmetry C_1 .


 Subroutine INISYM returns: Found  1 space group operations
 (whereof  1 operations are pure point group operations),
 and found     1 'primitive' translations


----------------------------------------------------------------------------------------

                                     Primitive cell                                     

  volume of cell :    6163.4969

  direct lattice vectors                    reciprocal lattice vectors
    27.120398187  0.402360350 -2.402807027     0.039265674 -0.000001116  0.027010185
     0.301744657 23.362465222 -0.437691370    -0.000563784  0.042826122  0.000808004
    -7.129577944 -0.289405483 10.364511012     0.009079162  0.001808280  0.102778985

  length of vectors
    27.229604721 23.368513107 12.583231926     0.047658611  0.042837453  0.103195062

  position of ions in fractional coordinates (direct lattice)
     0.536540148  0.086906542  0.671450792
     0.865641754  0.423340682  0.663244481
     0.758087493  0.561813356  0.011757940
     0.898454775  0.800433391  0.847351456
     0.277915580  0.463447759  0.162420796
     0.533558076  0.530850698  0.377049878
     0.645008242  0.912168998  0.738281695
     0.060332432  0.977036979  0.736575282
     0.762411173  0.245346165  0.136436993
     0.972398328  0.908012828  0.733461930
     0.365030213  0.962716313  0.081056717
     0.700490276  0.507636906  0.113601827
     0.915512462  0.684139585  0.755615042
     0.876569710  0.264030706  0.189242236
     0.184406232  0.539434235  0.550124032
     0.416728507  0.918447780  0.957480758
     0.883354650  0.933987461  0.765509126
     0.626792794  0.069568140  0.229192196
     0.727581078  0.385172296  0.567176947
     0.584888904  0.491015825  0.224459494
     0.350688872  0.086538768  0.314821438
     0.848475235  0.853478690  0.537946321
     0.206859094  0.682152914  0.475845692
     0.490364276  0.102748635  0.073120006
     0.602296211  0.080254173  0.566435033
     0.481952546  0.192564246  0.919922077
     0.626569735  0.173234849  0.106855690
     0.256854952  0.353332365  0.076906491
     0.834439593  0.968322904  0.035590523
     0.605393451  0.435470715  0.443381976
     0.339706140  0.775660250  0.256090182
     0.527252344  0.984078363  0.171951786
     0.019118647  0.193622237  0.947595638
     0.872342377  0.675968248  0.489973796
     0.211779350  0.750308647  0.049666360
     0.520043147  0.990540493  0.517850869
     0.720277579  0.027389392  0.811409797
     0.738508182  0.122677723  0.335785442
     0.515558875  0.872054131  0.229237038
     0.190255530  0.466237899  0.721288127
     0.340880637  0.667429763  0.665561080
     0.105280795  0.176740633  0.892229432
     0.219370560  0.223058583  0.954300764
     0.377472596  0.180372894  0.900996417
     0.275669339  0.762555723  0.681405356
     0.209843130  0.246445965  0.313041065
     0.867304034  0.576320571  0.007685179
     0.253505886  0.169136733  0.205369752
     0.224369821  0.890830473  0.245210662
     0.412996226  0.584581858  0.686218666
     0.046489697  0.778135720  0.329483760
     0.489951655  0.087234942  0.439338618
     0.314457998  0.928886851  0.164586152
     0.365591241  0.186114652  0.363628129
     0.037281313  0.469265052  0.643599183
     0.670793367  0.082903101  0.111228984
     0.098616642  0.500544493  0.503311327
     0.693446829  0.636886835  0.849087866
     0.344056265  0.056005698  0.132989206
     0.601107060  0.803797305  0.303888791
     0.082312921  0.274995217  0.953148648
     0.831499541  0.766390673  0.364605132
     0.961158719  0.542895129  0.045307463
     0.774830184  0.473870559  0.610154424
     0.180438495  0.059901119  0.422071194
     0.011142653  0.628230451  0.858425158
     0.945497019  0.515175142  0.174083843
     0.133409023  0.740320965  0.274236894
     0.674974264  0.223566880  0.679930813
     0.014873332  0.061287644  0.402064024
     0.222371328  0.401306067  0.199861254
     0.156623591  0.223039909  0.400551541
     0.693212687  0.427796243  0.689918185
     0.250039781  0.161911815  0.849979855
     0.553451602  0.736048655  0.911540414
     0.665689723  0.199272987  0.980642533
     0.738155395  0.338528866  0.077744507
     0.865829723  0.239952937  0.347609345
     0.789168423  0.208093046  0.008061190
     0.113853639  0.613118780  0.381707092
     0.401154058  0.622550524  0.310031486
     0.608117493  0.933872950  0.373360361
     0.126523553  0.503797389  0.785011802
     0.600233786  0.461775998  0.953338703
     0.275584232  0.466690829  0.464468957
     0.260153520  0.392204426  0.711939766
     0.559367056  0.644196058  0.867345643
     0.159230933  0.671504175  0.220209322
     0.641595375  0.528508808  0.463148970
     0.223363138  0.026381904  0.613175895
     0.801689066  0.468207129  0.271024520
     0.401814572  0.657973608  0.592778836
     0.248987110  0.802418788  0.263061869
     0.873764133  0.954942121  0.572468207
     0.902133586  0.492808133  0.628712896
     0.016063200  0.259535152  0.090155660
     0.479692917  0.959668530  0.283340951
     0.433061622  0.708511182  0.352664091
     0.647671761  0.091453373  0.803739497
     0.055096485  0.383219200  0.646786115
     0.989576312  0.187833030  0.720993833
     0.988355173  0.062103640  0.630452690
     0.129915120  0.376880488  0.643837701
     0.316745776  0.280360895  0.051758655
     0.418007412  0.016728150  0.013256955
     0.255845912  0.561169818  0.081606361
     0.430949962  0.857019035  0.619537403
     0.635191472  0.915059097  0.910050645
     0.565335039  0.614761322  0.514804143
     0.482362699  0.329445505  0.727060053
     0.719602791  0.083691335  0.672573716
     0.781678401  0.379142735  0.446675584
     0.815681340  0.921836067  0.150269000
     0.357176563  0.872404685  0.641598976
     0.688259521  0.484856564  0.914215372
     0.053584692  0.144543349  0.449072983
     0.799018026  0.057769813  0.037281517
     0.595127791  0.777872129  0.552467819
     0.051852178  0.643038156  0.420010570
     0.169543592  0.422684993  0.994313676
     0.256017131  0.068094841  0.254016676
     0.828290485  0.351859626  0.129101432
     0.237441816  0.273248217  0.167306784
     0.399623334  0.996618775  0.438474634
     0.842510851  0.135681356  0.562183562
     0.904539691  0.208284779  0.855844537
     0.103626821  0.534062874  0.078827244
     0.264126140  0.550085430  0.254282843
     0.259715094  0.325106707  0.468725372
     0.839669059  0.620039847  0.583284557
     0.867388996  0.337659942  0.554808107
     0.984043040  0.922171112  0.559045058
     0.662569719  0.163497938  0.347822497
     0.495788153  0.269816576  0.492843146
     0.543445562  0.994514291  0.734179267
     0.567471835  0.069820979  0.314748876
     0.535289346  0.029161711  0.014329944
     0.021425084  0.831919311  0.424317466
     0.221157478  0.849514030  0.580929385
     0.578330368  0.304029537  0.885230881
     0.944734667  0.937258569  0.201949025
     0.486793944  0.582312202  0.476892409
     0.544923342  0.453341195  0.009159035
     0.240701911  0.840639586  0.764029795
     0.730865879  0.221335553  0.271820220
     0.272823917  0.436370229  0.970369775
     0.685620655  0.975691593  0.296437163
     0.390469772  0.739764396  0.166395145
     0.965371299  0.395713076  0.888012742
     0.514061892  0.769321613  0.186028187
     0.343388609  0.691946839  0.860786931
     0.270544277  0.203075721  0.739483402
     0.158067955  0.937914844  0.812092385
     0.568482294  0.270699720  0.019686299
     0.106501106  0.782503776  0.942629653
     0.040168499  0.989087978  0.898828888
     0.528750679  0.451878619  0.473456771
     0.746385960  0.225865979  0.666043892
     0.281156933  0.506046540  0.764608012
     0.837631083  0.092362657  0.412770859
     0.264382551  0.596507904  0.553710084
     0.511980898  0.595114296  0.895754092
     0.574898830  0.765510599  0.796835752
     0.013719789  0.104265624  0.978432896
     0.354953752  0.390307042  0.256014441
     0.515934331  0.826139793  0.413314464
     0.797897703  0.876889323  0.640206439
     0.642361997  0.396221414  0.326180633
     0.117874669  0.742963141  0.808932145
     0.382046699  0.244684371  0.743803505
     0.485211549  0.347205545  0.576257815
     0.205001347  0.346377768  0.530418180
     0.743461155  0.959206253  0.241133166
     0.538988000  0.139656879  0.859063177
     0.753638410  0.935259743  0.809756907
     0.374271704  0.869661109  0.312604556
     0.973190254  0.877015268  0.921610571
     0.980152983  0.739416163  0.975720311
     0.765968841  0.657167041  0.707993985
     0.108225391  0.287250055  0.261979723
     0.924455291  0.180149645  0.146540047
     0.946591073  0.817680312  0.614212898
     0.506674787  0.567758245  0.161168323
     0.986693383  0.275260900  0.775978734
     0.159034264  0.666127815  0.901529870
     0.415241082  0.237843340  0.314685978
     0.842879160  0.512801339  0.210389274
     0.138400042  0.175928072  0.122302027
     0.932756020  0.861849916  0.268981222
     0.423260167  0.428643729  0.109430847
     0.830518649  0.348917501  0.779083818
     0.289436046  0.743300951  0.520360288
     0.901924132  0.988223945  0.963674229
     0.134780395  0.886531446  0.192265010
     0.205745066  0.127135331  0.985544924
     0.061625871  0.605258520  0.065468741
     0.117236969  0.973239016  0.627445651
     0.382147843  0.825632558  0.806969089
     0.192060415  0.476066882  0.416385654
     0.231865158  0.307078276  0.867104230
     0.835926440  0.762890983  0.627066696
     0.099147771  0.009674667  0.280834573
     0.418071976  0.069331301  0.559814507
     0.667467745  0.837081533  0.641563820
     0.191136155  0.711975700  0.627517560
     0.596298260  0.180009552  0.515592147
     0.685773760  0.511226963  0.274495643
     0.733662097  0.693898578  0.802146440
     0.522720743  0.186280020  0.700593857
     0.411784163  0.112127726  0.822832147
     0.893486312  0.419515483  0.890122536
     0.589476736  0.591220691  0.191738418
     0.546209438  0.191310261  0.154915957
     0.702382916  0.855911093  0.951386395
     0.888243300  0.151956885  0.947967821
     0.732535812  0.281590079  0.525929961
     0.852762312  0.803286392  0.935863090
     0.425515253  0.154876838  0.118019217
     0.354430766  0.513830133  0.379742262
     0.399451007  0.862687035  0.081115715
     0.713068491  0.601831139  0.110623428
     0.126280262  0.925793162  0.329543357
     0.533379212  0.888784661  0.571597530
     0.619138002  0.979570869  0.571682665
     0.284923908  0.181297099  0.443216563
     0.673142411  0.767407718  0.920459759
     0.650639546  0.351034744  0.593601206
     0.964351936  0.725321339  0.677291325
     0.997022024  0.701248081  0.272785988
     0.300011490  0.939455241  0.857411218
     0.284133675  0.693658239  0.237631557
     0.386579601  0.951543193  0.736710082
     0.914958886  0.617773422  0.435404894
     0.727984996  0.041915020  0.448644340
     0.426874070  0.269624481  0.946686274
     0.864325594  0.029436581  0.782178074
     0.946216336  0.073259247  0.415587753
     0.770073353  0.874954467  0.307901319
     0.174889079  0.048347548  0.683061671
     0.083907003  0.085954300  0.765014148
     0.523958945  0.896414862  0.057806493
     0.429249623  0.695784717  0.898712245
     0.233146841  0.567550309  0.791474341
     0.424397424  0.512824084  0.167767163
     0.412852480  0.780728058  0.524359314
     0.864783227  0.640963174  0.862053144
     0.114659069  0.237065127  0.766321981
     0.088784962  0.916704688  0.916745861
     0.848133076  0.634086604  0.122319312
     0.026029965  0.170279028  0.267929199
     0.265339101  0.807281827  0.020613865
     0.950265404  0.331467555  0.216065828
     0.986456346  0.285043032  0.383310890
     0.765953074  0.704690616  0.305587549
     0.516707616  0.408039977  0.195640178
     0.780910652  0.525008253  0.859308273
     0.277740000  0.644930000  0.307350000

  ion indices of the primitive-cell ions
   primitive index   ion index
                 1           1
                 2           2
                 3           3
                 4           4
                 5           5
                 6           6
                 7           7
                 8           8
                 9           9
                10          10
                11          11
                12          12
                13          13
                14          14
                15          15
                16          16
                17          17
                18          18
                19          19
                20          20
                21          21
                22          22
                23          23
                24          24
                25          25
                26          26
                27          27
                28          28
                29          29
                30          30
                31          31
                32          32
                33          33
                34          34
                35          35
                36          36
                37          37
                38          38
                39          39
                40          40
                41          41
                42          42
                43          43
                44          44
                45          45
                46          46
                47          47
                48          48
                49          49
                50          50
                51          51
                52          52
                53          53
                54          54
                55          55
                56          56
                57          57
                58          58
                59          59
                60          60
                61          61
                62          62
                63          63
                64          64
                65          65
                66          66
                67          67
                68          68
                69          69
                70          70
                71          71
                72          72
                73          73
                74          74
                75          75
                76          76
                77          77
                78          78
                79          79
                80          80
                81          81
                82          82
                83          83
                84          84
                85          85
                86          86
                87          87
                88          88
                89          89
                90          90
                91          91
                92          92
                93          93
                94          94
                95          95
                96          96
                97          97
                98          98
                99          99
               100         100
               101         101
               102         102
               103         103
               104         104
               105         105
               106         106
               107         107
               108         108
               109         109
               110         110
               111         111
               112         112
               113         113
               114         114
               115         115
               116         116
               117         117
               118         118
               119         119
               120         120
               121         121
               122         122
               123         123
               124         124
               125         125
               126         126
               127         127
               128         128
               129         129
               130         130
               131         131
               132         132
               133         133
               134         134
               135         135
               136         136
               137         137
               138         138
               139         139
               140         140
               141         141
               142         142
               143         143
               144         144
               145         145
               146         146
               147         147
               148         148
               149         149
               150         150
               151         151
               152         152
               153         153
               154         154
               155         155
               156         156
               157         157
               158         158
               159         159
               160         160
               161         161
               162         162
               163         163
               164         164
               165         165
               166         166
               167         167
               168         168
               169         169
               170         170
               171         171
               172         172
               173         173
               174         174
               175         175
               176         176
               177         177
               178         178
               179         179
               180         180
               181         181
               182         182
               183         183
               184         184
               185         185
               186         186
               187         187
               188         188
               189         189
               190         190
               191         191
               192         192
               193         193
               194         194
               195         195
               196         196
               197         197
               198         198
               199         199
               200         200
               201         201
               202         202
               203         203
               204         204
               205         205
               206         206
               207         207
               208         208
               209         209
               210         210
               211         211
               212         212
               213         213
               214         214
               215         215
               216         216
               217         217
               218         218
               219         219
               220         220
               221         221
               222         222
               223         223
               224         224
               225         225
               226         226
               227         227
               228         228
               229         229
               230         230
               231         231
               232         232
               233         233
               234         234
               235         235
               236         236
               237         237
               238         238
               239         239
               240         240
               241         241
               242         242
               243         243
               244         244
               245         245
               246         246
               247         247
               248         248
               249         249
               250         250
               251         251
               252         252
               253         253
               254         254
               255         255
               256         256
               257         257

----------------------------------------------------------------------------------------

 
 
 KPOINTS: KPOINTS                                 

Automatic generation of k-mesh.
 Grid dimensions read from file:
 generate k-points for:    1    1    1

 Generating k-lattice:

  Cartesian coordinates                     Fractional coordinates (reciprocal lattice)
     0.039265674 -0.000001116  0.027010185     1.000000000 -0.000000000  0.000000000
    -0.000563784  0.042826122  0.000808004     0.000000000  1.000000000 -0.000000000
     0.009079162  0.001808280  0.102778985    -0.000000000  0.000000000  1.000000000

  Length of vectors
     0.047658611  0.042837453  0.103195062

  Shift w.r.t. Gamma in fractional coordinates (k-lattice)
     0.000000000  0.000000000  0.000000000

 
 Subroutine IBZKPT returns following result:
 ===========================================
 
 Found      1 irreducible k-points:
 
 Following reciprocal coordinates:
            Coordinates               Weight
  0.000000  0.000000  0.000000      1.000000
 
 Following cartesian coordinates:
            Coordinates               Weight
  0.000000  0.000000  0.000000      1.000000
 


--------------------------------------------------------------------------------------------------------




 Dimension of arrays:
   k-points           NKPTS =      1   k-points in BZ     NKDIM =      1   number of bands    NBANDS=    924
   number of dos      NEDOS =    903   number of ions     NIONS =    257
   non local maximal  LDIM  =      6   non local SUM 2l+1 LMDIM =     18
   total plane-waves  NPLWV = ******
   max r-space proj   IRMAX =   2791   max aug-charges    IRDMAX=  11398
   dimension x,y,z NGX =   140 NGY =  120 NGZ =   64
   dimension x,y,z NGXF=   280 NGYF=  240 NGZF=  128
   support grid    NGXF=   280 NGYF=  240 NGZF=  128
   ions per type =              48 208   1
   NGX,Y,Z   is equivalent  to a cutoff of   8.55,  8.54,  8.46 a.u.
   NGXF,Y,Z  is equivalent  to a cutoff of  17.09, 17.07, 16.91 a.u.

 SYSTEM =  LiMoS2                                  
 POSCAR =  mo3s13:                                 

 Startparameter for this run:
   NWRITE =      2    write-flag & timer
   PREC   = normal    normal or accurate (medium, high low for compatibility)
   ISTART =      0    job   : 0-new  1-cont  2-samecut
   ICHARG =      1    charge: 1-file 2-atom 10-const
   ISPIN  =      1    spin polarized calculation?
   LNONCOLLINEAR =      F non collinear calculations
   LSORBIT =      F    spin-orbit coupling
   INIWAV =      1    electr: 0-lowe 1-rand  2-diag
   LASPH  =      F    aspherical Exc in radial PAW
   METAGGA=      F    non-selfconsistent MetaGGA calc.

 Electronic Relaxation 1
   ENCUT  =  400.0 eV  29.40 Ry    5.42 a.u.  44.40 38.11 20.52*2*pi/ulx,y,z
   ENINI  =  400.0     initial cutoff
   ENAUG  =  345.3 eV  augmentation charge cutoff
   NELM   =    120;   NELMIN=  2; NELMDL= 10     # of ELM steps 
   EDIFF  = 0.1E-04   stopping-criterion for ELM
   LREAL  =      T    real-space projection
   NLSPLINE    = F    spline interpolate recip. space projectors
   LCOMPAT=      F    compatible to vasp.4.4
   GGA_COMPAT  = T    GGA compatible to vasp.4.4-vasp.4.6
   LMAXPAW     = -100 max onsite density
   LMAXMIX     =    6 max onsite mixed and CHGCAR
   VOSKOWN=      1    Vosko Wilk Nusair interpolation
   ROPT   =   -0.00050  -0.00050  -0.00050
 Ionic relaxation
   EDIFFG = -.2E-01   stopping-criterion for IOM
   NSW    =   1000    number of steps for IOM
   NBLOCK =      1;   KBLOCK =   1000    inner block; outer block 
   IBRION =      2    ionic relax: 0-MD 1-quasi-New 2-CG
   NFREE  =      1    steps in history (QN), initial steepest desc. (CG)
   ISIF   =      2    stress and relaxation
   IWAVPR =     11    prediction:  0-non 1-charg 2-wave 3-comb
   ISYM   =      2    0-nonsym 1-usesym 2-fastsym
   LCORR  =      T    Harris-Foulkes like correction to forces

   POTIM  = 0.5000    time-step for ionic-motion
   TEIN   =    0.0    initial temperature
   TEBEG  =    0.0;   TEEND  =   0.0 temperature during run
   SMASS  =  -3.00    Nose mass-parameter (am)
   estimated Nose-frequenzy (Omega)   =  0.10E-29 period in steps = 0.13E+47 mass=  -0.169E-25a.u.
   SCALEE = 1.0000    scale energy and forces
   NPACO  =    256;   APACO  = 16.0  distance and # of slots for P.C.
   PSTRESS=    0.0 pullay stress

  Mass of Ions in am
   POMASS =  95.94 32.07  7.01
  Ionic Valenz
   ZVAL   =   6.00  6.00  1.00
  Atomic Wigner-Seitz radii
   RWIGS  =  -1.00 -1.00 -1.00
  virtual crystal weights 
   VCA    =   1.00  1.00  1.00
   NELECT =    1537.0000    total number of electrons
   NUPDOWN=      -1.0000    fix difference up-down

 DOS related values:
   EMIN   =  10.00;   EMAX   =-10.00  energy-range for DOS
   EFERMI =   0.00
   ISMEAR =     0;   SIGMA  =   0.05  broadening in eV -4-tet -1-fermi 0-gaus

 Electronic relaxation 2 (details)
   IALGO  =     38    algorithm
   LDIAG  =      T    sub-space diagonalisation (order eigenvalues)
   LSUBROT=      F    optimize rotation matrix (better conditioning)
   TURBO    =      0    0=normal 1=particle mesh
   IRESTART =      0    0=no restart 2=restart with 2 vectors
   NREBOOT  =      0    no. of reboots
   NMIN     =      0    reboot dimension
   EREF     =   0.00    reference energy to select bands
   IMIX   =      4    mixing-type and parameters
     AMIX     =   0.40;   BMIX     =  1.00
     AMIX_MAG =   1.60;   BMIX_MAG =  1.00
     AMIN     =   0.10
     WC   =   100.;   INIMIX=   1;  MIXPRE=   1;  MAXMIX= -45

 Intra band minimization:
   WEIMIN = 0.0010     energy-eigenvalue tresh-hold
   EBREAK =  0.27E-08  absolut break condition
   DEPER  =   0.30     relativ break condition  

   TIME   =   0.40     timestep for ELM

  volume/ion in A,a.u.               =      23.98       161.84
  Fermi-wavevector in a.u.,A,eV,Ry     =   1.030442  1.947254 14.446823  1.061812
  Thomas-Fermi vector in A             =   2.164541
 
 Write flags
   LWAVE        =      T    write WAVECAR
   LDOWNSAMPLE  =      F    k-point downsampling of WAVECAR
   LCHARG       =      T    write CHGCAR
   LVTOT        =      F    write LOCPOT, total local potential
   LVHAR        =      F    write LOCPOT, Hartree potential only
   LELF         =      F    write electronic localiz. function (ELF)
   LORBIT       =     11    0 simple, 1 ext, 2 COOP (PROOUT), +10 PAW based schemes


 Dipole corrections
   LMONO  =      F    monopole corrections only (constant potential shift)
   LDIPOL =      F    correct potential (dipole corrections)
   IDIPOL =      0    1-x, 2-y, 3-z, 4-all directions 
   EPSILON=  1.0000000 bulk dielectric constant

 Exchange correlation treatment:
   GGA     =    --    GGA type
   LEXCH   =     8    internal setting for exchange type
   VOSKOWN=      1    Vosko Wilk Nusair interpolation
   LHFCALC =     F    Hartree Fock is set to
   LHFONE  =     F    Hartree Fock one center treatment
   AEXX    =    0.0000 exact exchange contribution

 Linear response parameters
   LEPSILON=     F    determine dielectric tensor
   LRPA    =     F    only Hartree local field effects (RPA)
   LNABLA  =     F    use nabla operator in PAW spheres
   LVEL    =     F    velocity operator in full k-point grid
   LINTERFAST=   F  fast interpolation
   KINTER  =     0    interpolate to denser k-point grid
   CSHIFT  =0.1000    complex shift for real part using Kramers Kronig
   OMEGAMAX=  -1.0    maximum frequency
   DEG_THRESHOLD= 0.2000000E-02 threshold for treating states as degnerate
   RTIME   =   -0.100 relaxation time in fs
  (WPLASMAI=    0.000 imaginary part of plasma frequency in eV, 0.658/RTIME)
   DFIELD  = 0.0000000 0.0000000 0.0000000 field for delta impulse in time
 
 Orbital magnetization related:
   ORBITALMAG=     F  switch on orbital magnetization
   LCHIMAG   =     F  perturbation theory with respect to B field
   DQ        =  0.001000  dq finite difference perturbation B field
   LLRAUG    =     F  two centre corrections for induced B field



--------------------------------------------------------------------------------------------------------


 conjugate gradient relaxation of ions
 charge density and potential will be updated during run
 non-spin polarized calculation
 Variant of blocked Davidson
 Davidson routine will perform the subspace rotation
 perform sub-space diagonalisation
    after iterative eigenvector-optimisation
 modified Broyden-mixing scheme, WC =      100.0
 initial mixing is a Kerker type mixing with AMIX =  0.4000 and BMIX =      1.0000
 Hartree-type preconditioning will be used
 using additional bands          155
 real space projection scheme for non local part
 use partial core corrections
 calculate Harris-corrections to forces 
   (improved forces if not selfconsistent)
 use gradient corrections 
 use of overlap-Matrix (Vanderbilt PP)
 Gauss-broadening in eV      SIGMA  =   0.05


--------------------------------------------------------------------------------------------------------


  energy-cutoff  :      400.00
  volume of cell :     6163.50
      direct lattice vectors                 reciprocal lattice vectors
    27.120398187  0.402360350 -2.402807027     0.039265674 -0.000001116  0.027010185
     0.301744657 23.362465222 -0.437691370    -0.000563784  0.042826122  0.000808004
    -7.129577944 -0.289405483 10.364511012     0.009079162  0.001808280  0.102778985

  length of vectors
    27.229604721 23.368513107 12.583231926     0.047658611  0.042837453  0.103195062


 
 k-points in units of 2pi/SCALE and weight: KPOINTS                                 
   0.00000000  0.00000000  0.00000000       1.000
 
 k-points in reciprocal lattice and weights: KPOINTS                                 
   0.00000000  0.00000000  0.00000000       1.000
 
 position of ions in fractional coordinates (direct lattice) 
   0.53654015  0.08690654  0.67145079
   0.86564175  0.42334068  0.66324448
   0.75808749  0.56181336  0.01175794
   0.89845477  0.80043339  0.84735146
   0.27791558  0.46344776  0.16242080
   0.53355808  0.53085070  0.37704988
   0.64500824  0.91216900  0.73828169
   0.06033243  0.97703698  0.73657528
   0.76241117  0.24534617  0.13643699
   0.97239833  0.90801283  0.73346193
   0.36503021  0.96271631  0.08105672
   0.70049028  0.50763691  0.11360183
   0.91551246  0.68413958  0.75561504
   0.87656971  0.26403071  0.18924224
   0.18440623  0.53943424  0.55012403
   0.41672851  0.91844778  0.95748076
   0.88335465  0.93398746  0.76550913
   0.62679279  0.06956814  0.22919220
   0.72758108  0.38517230  0.56717695
   0.58488890  0.49101582  0.22445949
   0.35068887  0.08653877  0.31482144
   0.84847524  0.85347869  0.53794632
   0.20685909  0.68215291  0.47584569
   0.49036428  0.10274863  0.07312001
   0.60229621  0.08025417  0.56643503
   0.48195255  0.19256425  0.91992208
   0.62656973  0.17323485  0.10685569
   0.25685495  0.35333236  0.07690649
   0.83443959  0.96832290  0.03559052
   0.60539345  0.43547072  0.44338198
   0.33970614  0.77566025  0.25609018
   0.52725234  0.98407836  0.17195179
   0.01911865  0.19362224  0.94759564
   0.87234238  0.67596825  0.48997380
   0.21177935  0.75030865  0.04966636
   0.52004315  0.99054049  0.51785087
   0.72027758  0.02738939  0.81140980
   0.73850818  0.12267772  0.33578544
   0.51555887  0.87205413  0.22923704
   0.19025553  0.46623790  0.72128813
   0.34088064  0.66742976  0.66556108
   0.10528079  0.17674063  0.89222943
   0.21937056  0.22305858  0.95430076
   0.37747260  0.18037289  0.90099642
   0.27566934  0.76255572  0.68140536
   0.20984313  0.24644596  0.31304107
   0.86730403  0.57632057  0.00768518
   0.25350589  0.16913673  0.20536975
   0.22436982  0.89083047  0.24521066
   0.41299623  0.58458186  0.68621867
   0.04648970  0.77813572  0.32948376
   0.48995165  0.08723494  0.43933862
   0.31445800  0.92888685  0.16458615
   0.36559124  0.18611465  0.36362813
   0.03728131  0.46926505  0.64359918
   0.67079337  0.08290310  0.11122898
   0.09861664  0.50054449  0.50331133
   0.69344683  0.63688683  0.84908787
   0.34405626  0.05600570  0.13298921
   0.60110706  0.80379731  0.30388879
   0.08231292  0.27499522  0.95314865
   0.83149954  0.76639067  0.36460513
   0.96115872  0.54289513  0.04530746
   0.77483018  0.47387056  0.61015442
   0.18043849  0.05990112  0.42207119
   0.01114265  0.62823045  0.85842516
   0.94549702  0.51517514  0.17408384
   0.13340902  0.74032097  0.27423689
   0.67497426  0.22356688  0.67993081
   0.01487333  0.06128764  0.40206402
   0.22237133  0.40130607  0.19986125
   0.15662359  0.22303991  0.40055154
   0.69321269  0.42779624  0.68991819
   0.25003978  0.16191182  0.84997986
   0.55345160  0.73604865  0.91154041
   0.66568972  0.19927299  0.98064253
   0.73815539  0.33852887  0.07774451
   0.86582972  0.23995294  0.34760935
   0.78916842  0.20809305  0.00806119
   0.11385364  0.61311878  0.38170709
   0.40115406  0.62255052  0.31003149
   0.60811749  0.93387295  0.37336036
   0.12652355  0.50379739  0.78501180
   0.60023379  0.46177600  0.95333870
   0.27558423  0.46669083  0.46446896
   0.26015352  0.39220443  0.71193977
   0.55936706  0.64419606  0.86734564
   0.15923093  0.67150418  0.22020932
   0.64159538  0.52850881  0.46314897
   0.22336314  0.02638190  0.61317589
   0.80168907  0.46820713  0.27102452
   0.40181457  0.65797361  0.59277884
   0.24898711  0.80241879  0.26306187
   0.87376413  0.95494212  0.57246821
   0.90213359  0.49280813  0.62871290
   0.01606320  0.25953515  0.09015566
   0.47969292  0.95966853  0.28334095
   0.43306162  0.70851118  0.35266409
   0.64767176  0.09145337  0.80373950
   0.05509648  0.38321920  0.64678611
   0.98957631  0.18783303  0.72099383
   0.98835517  0.06210364  0.63045269
   0.12991512  0.37688049  0.64383770
   0.31674578  0.28036090  0.05175866
   0.41800741  0.01672815  0.01325696
   0.25584591  0.56116982  0.08160636
   0.43094996  0.85701904  0.61953740
   0.63519147  0.91505910  0.91005064
   0.56533504  0.61476132  0.51480414
   0.48236270  0.32944551  0.72706005
   0.71960279  0.08369133  0.67257372
   0.78167840  0.37914274  0.44667558
   0.81568134  0.92183607  0.15026900
   0.35717656  0.87240468  0.64159898
   0.68825952  0.48485656  0.91421537
   0.05358469  0.14454335  0.44907298
   0.79901803  0.05776981  0.03728152
   0.59512779  0.77787213  0.55246782
   0.05185218  0.64303816  0.42001057
   0.16954359  0.42268499  0.99431368
   0.25601713  0.06809484  0.25401668
   0.82829048  0.35185963  0.12910143
   0.23744182  0.27324822  0.16730678
   0.39962333  0.99661878  0.43847463
   0.84251085  0.13568136  0.56218356
   0.90453969  0.20828478  0.85584454
   0.10362682  0.53406287  0.07882724
   0.26412614  0.55008543  0.25428284
   0.25971509  0.32510671  0.46872537
   0.83966906  0.62003985  0.58328456
   0.86738900  0.33765994  0.55480811
   0.98404304  0.92217111  0.55904506
   0.66256972  0.16349794  0.34782250
   0.49578815  0.26981658  0.49284315
   0.54344556  0.99451429  0.73417927
   0.56747183  0.06982098  0.31474888
   0.53528935  0.02916171  0.01432994
   0.02142508  0.83191931  0.42431747
   0.22115748  0.84951403  0.58092938
   0.57833037  0.30402954  0.88523088
   0.94473467  0.93725857  0.20194902
   0.48679394  0.58231220  0.47689241
   0.54492334  0.45334120  0.00915904
   0.24070191  0.84063959  0.76402979
   0.73086588  0.22133555  0.27182022
   0.27282392  0.43637023  0.97036978
   0.68562066  0.97569159  0.29643716
   0.39046977  0.73976440  0.16639515
   0.96537130  0.39571308  0.88801274
   0.51406189  0.76932161  0.18602819
   0.34338861  0.69194684  0.86078693
   0.27054428  0.20307572  0.73948340
   0.15806795  0.93791484  0.81209238
   0.56848229  0.27069972  0.01968630
   0.10650111  0.78250378  0.94262965
   0.04016850  0.98908798  0.89882889
   0.52875068  0.45187862  0.47345677
   0.74638596  0.22586598  0.66604389
   0.28115693  0.50604654  0.76460801
   0.83763108  0.09236266  0.41277086
   0.26438255  0.59650790  0.55371008
   0.51198090  0.59511430  0.89575409
   0.57489883  0.76551060  0.79683575
   0.01371979  0.10426562  0.97843290
   0.35495375  0.39030704  0.25601444
   0.51593433  0.82613979  0.41331446
   0.79789770  0.87688932  0.64020644
   0.64236200  0.39622141  0.32618063
   0.11787467  0.74296314  0.80893214
   0.38204670  0.24468437  0.74380351
   0.48521155  0.34720555  0.57625781
   0.20500135  0.34637777  0.53041818
   0.74346115  0.95920625  0.24113317
   0.53898800  0.13965688  0.85906318
   0.75363841  0.93525974  0.80975691
   0.37427170  0.86966111  0.31260456
   0.97319025  0.87701527  0.92161057
   0.98015298  0.73941616  0.97572031
   0.76596884  0.65716704  0.70799399
   0.10822539  0.28725006  0.26197972
   0.92445529  0.18014965  0.14654005
   0.94659107  0.81768031  0.61421290
   0.50667479  0.56775825  0.16116832
   0.98669338  0.27526090  0.77597873
   0.15903426  0.66612782  0.90152987
   0.41524108  0.23784334  0.31468598
   0.84287916  0.51280134  0.21038927
   0.13840004  0.17592807  0.12230203
   0.93275602  0.86184992  0.26898122
   0.42326017  0.42864373  0.10943085
   0.83051865  0.34891750  0.77908382
   0.28943605  0.74330095  0.52036029
   0.90192413  0.98822395  0.96367423
   0.13478039  0.88653145  0.19226501
   0.20574507  0.12713533  0.98554492
   0.06162587  0.60525852  0.06546874
   0.11723697  0.97323902  0.62744565
   0.38214784  0.82563256  0.80696909
   0.19206042  0.47606688  0.41638565
   0.23186516  0.30707828  0.86710423
   0.83592644  0.76289098  0.62706670
   0.09914777  0.00967467  0.28083457
   0.41807198  0.06933130  0.55981451
   0.66746775  0.83708153  0.64156382
   0.19113616  0.71197570  0.62751756
   0.59629826  0.18000955  0.51559215
   0.68577376  0.51122696  0.27449564
   0.73366210  0.69389858  0.80214644
   0.52272074  0.18628002  0.70059386
   0.41178416  0.11212773  0.82283215
   0.89348631  0.41951548  0.89012254
   0.58947674  0.59122069  0.19173842
   0.54620944  0.19131026  0.15491596
   0.70238292  0.85591109  0.95138640
   0.88824330  0.15195688  0.94796782
   0.73253581  0.28159008  0.52592996
   0.85276231  0.80328639  0.93586309
   0.42551525  0.15487684  0.11801922
   0.35443077  0.51383013  0.37974226
   0.39945101  0.86268704  0.08111572
   0.71306849  0.60183114  0.11062343
   0.12628026  0.92579316  0.32954336
   0.53337921  0.88878466  0.57159753
   0.61913800  0.97957087  0.57168266
   0.28492391  0.18129710  0.44321656
   0.67314241  0.76740772  0.92045976
   0.65063955  0.35103474  0.59360121
   0.96435194  0.72532134  0.67729132
   0.99702202  0.70124808  0.27278599
   0.30001149  0.93945524  0.85741122
   0.28413367  0.69365824  0.23763156
   0.38657960  0.95154319  0.73671008
   0.91495889  0.61777342  0.43540489
   0.72798500  0.04191502  0.44864434
   0.42687407  0.26962448  0.94668627
   0.86432559  0.02943658  0.78217807
   0.94621634  0.07325925  0.41558775
   0.77007335  0.87495447  0.30790132
   0.17488908  0.04834755  0.68306167
   0.08390700  0.08595430  0.76501415
   0.52395894  0.89641486  0.05780649
   0.42924962  0.69578472  0.89871224
   0.23314684  0.56755031  0.79147434
   0.42439742  0.51282408  0.16776716
   0.41285248  0.78072806  0.52435931
   0.86478323  0.64096317  0.86205314
   0.11465907  0.23706513  0.76632198
   0.08878496  0.91670469  0.91674586
   0.84813308  0.63408660  0.12231931
   0.02602996  0.17027903  0.26792920
   0.26533910  0.80728183  0.02061387
   0.95026540  0.33146756  0.21606583
   0.98645635  0.28504303  0.38331089
   0.76595307  0.70469062  0.30558755
   0.51670762  0.40803998  0.19564018
   0.78091065  0.52500825  0.85930827
   0.27774000  0.64493000  0.30735000
 
 position of ions in cartesian coordinates  (Angst):
   9.79024528  2.05191201  5.63201845
  18.87563662 10.04663529  4.60894207
  20.64532970 13.42696653 -1.94557351
  18.56671950 18.81637168  6.27322726
   6.51903235 10.89209889  0.81278754
  11.94228234 12.50754328  2.39355175
  12.50448559 21.35637946  5.70284992
  -3.32041562 22.63709890  7.06163478
  19.77818831  5.99916966 -0.52521011
  21.41654387 21.39240474  4.86805934
   9.61235905 22.61484181 -0.45835655
  18.34081886 12.10862208 -0.72790386
  19.64828164 16.13287404  5.33233865
  22.50337216  6.46633734 -0.26038858
   1.24178967 12.51750240  5.02256829
   4.75254606 21.34777917  8.52050501
  18.78099859 21.95413392  5.40279875
  15.38581834  1.81115034  0.83895353
  15.80477998  9.12718003  3.96168820
  14.41027992 11.64171643  0.70612434
   7.29239048  2.07175120  2.38245530
  19.43318863 20.12507439  3.16326805
   2.42335804 15.88229327  4.13629299
  12.80856349  2.57660322 -0.46536981
  12.32028662  1.95334604  4.38849401
   6.57019404  4.42646360  8.29221982
  16.28325742  4.26837533 -0.47384258
   6.52431391  8.33580618  0.02527476
  22.66877488 22.94785548 -2.05994553
  13.38878606 10.28893858  2.95019196
   7.62120221 18.18390599  1.49850141
  13.37029024 23.15287818  0.08458794
  -6.17902717  4.25694599  9.69068022
  20.36893606 16.00147957  2.68640294
   5.61584174 17.59989757 -0.32250099
  10.71060939 23.20084368  3.68415668
  13.75746996  0.69486841  6.66718965
  17.67164483  3.06602230  1.65206428
  12.61093632 20.51443230  0.75545075
   0.15801060 10.76027324  6.81458311
   4.70104238 15.53734445  5.78701651
  -3.45263166  3.91324162  8.91719449
  -0.78703801  5.02328453  9.26612484
   3.86790948  4.10508217  8.35244582
   2.84822676 17.72889752  6.06628903
   3.53354232  5.75142204  2.63243775
  23.64074032 13.81101392 -2.25656165
   5.46201702  3.99401663  1.44540164
   4.60555369 20.83130815  1.61246241
   6.48456709 13.62485119  5.86410425
  -0.85346276 18.10251990  2.96264900
  10.18170773  2.10801341  3.33808868
   7.63508296 21.77998005  0.54370734
   7.37862404  4.38996053  2.80892177
  -3.43590826 10.79192785  6.37561776
  17.42418307  2.17453119 -0.49523896
  -0.76283811 11.58797168  4.76053503
  12.94509320 14.91253136  6.85540175
   8.39968542  1.40837797  0.52715407
  14.37820554 18.93260115  1.35349931
  -4.48021005  6.18183920  9.56077456
  20.18237223 18.13381917  1.44557838
  25.90779980 13.05698850 -2.07750974
  16.80654750 11.20596336  4.25477578
   1.90244920  1.34988939  3.91478445
  -5.62845070 14.43306248  8.59541231
  24.55656266 12.36581103 -0.69304069
   1.88630041 17.27003564  2.19774307
  13.52541119  5.29788063  5.32746420
  -2.44468289  1.32145536  4.10463418
   4.72696453  9.40713150  1.36150058
   1.45923182  5.15785943  3.67756195
  14.01046386 10.07363004  5.29776559
   0.77003682  3.63727641  8.13796082
   8.73302814 17.15479329  7.79567112
  11.12233254  4.63955205  8.47713632
  19.56693199  8.18337364 -1.11603233
  21.07574345  5.85366765  1.41735381
  21.40787995  5.17676368 -1.90374967
   0.55135088 14.25930824  3.41428224
   8.85691544 14.61599864  1.97694397
  14.11227793 21.95420415  1.99976046
  -2.01341552 11.59367032  7.61174401
   9.62101513 10.75383452  8.23652816
   4.30330794 10.87951257  3.94755134
   2.09798259  9.06149845  6.58214435
   9.18083164 15.02406054  7.36360332
   2.95102958 15.68833136  1.60584916
  14.25774007 12.47138333  3.02735898
   1.69397250  0.52876232  5.80702267
  19.95111525 11.18260468  0.67780228
   6.86964830 15.36200634  4.89039053
   5.11923505 18.77053202  1.77702788
  19.90352319 22.49569470  3.41589651
  20.13246669 11.69424269  4.13295095
  -0.12881808  6.04375262  0.78222626
  11.27893637 22.53123164  1.36404226
   9.44424697 16.62475175  2.30451812
  11.86238823  2.16456707  6.73410826
  -3.00143906  8.78793043  6.40350385
  21.75399950  4.57774933  5.01277471
  22.32846369  1.66611260  4.13232487
  -0.95321961  8.67079983  6.19594464
   8.30585161  6.66238836 -0.34733737
  11.24705859  0.55516380 -0.87431106
   6.52615409 13.18963528 -0.01455751
   7.52909528 20.01617706  5.01060280
  11.01448283 21.37023855  7.50547393
  11.84727605 14.44082127  3.70822648
   7.99764557  7.68032761  6.23240199
  14.74600091  2.05012901  5.20520007
  18.12922539  9.04295499  2.58540415
  21.32840729 21.82107221 -0.80593984
   5.37568416 20.33955554  5.40978929
  12.29420539 11.33979401  7.60942294
  -1.70484747  3.26848514  4.46240283
  21.42131727  1.66034894 -1.55876678
  12.43595905 18.25257917  3.95561364
  -1.39421305 14.92226645  3.94716115
  -2.36340419  9.65542124  9.71318894
   5.15280210  1.62036068  1.98779435
  21.64930081  8.51621686 -0.80615491
   5.32914103  6.43086964  1.04392775
   8.01252925 23.31736709  3.14814598
  18.88203936  3.34614492  3.74298017
  18.49251508  4.98231071  6.60581135
   2.40954629 12.49590761  0.33425587
   5.51626208 12.88403476  1.76010554
   3.79986190  7.56414150  4.09176763
  18.80068022 14.65470315  3.75651041
  19.67027440  8.07700708  3.51835552
  22.98014397 21.77833973  3.02613679
  15.53866163  3.98564494  1.94142129
  10.01362421  6.36043436  3.79869857
   9.80416110 23.24049098  5.86832396
  13.16710359  1.76842831  1.86813284
[...]
     17.11836      8.26818      5.92531        -0.000633      0.001216     -0.001130
      4.36635     17.36034      4.52236         0.001078      0.004714     -0.001696
     17.88941     23.13944      7.37505        -0.001589     -0.000677     -0.000213
      2.51470     20.57624      1.26705        -0.000654     -0.001127     -0.001297
     -1.43389      2.76002      9.66636        -0.001117     -0.000441      0.002102
      1.34694     13.99362     -0.16075         0.001338      0.003133     -0.000592
     -1.01304     22.58151      5.81966        -0.001004      0.000139     -0.000059
      4.87908     19.22890      7.16654        -0.001527     -0.001833     -0.000916
      2.33820     11.17695      3.64579         0.000546     -0.000628     -0.001833
      0.19315      6.99297      8.27714        -0.000600     -0.001413     -0.000452
     18.35472     17.95545      4.02820        -0.002200     -0.005277     -0.004528
      0.64298      0.05509      2.62642        -0.002728     -0.001907     -0.002703
      7.35890      1.64036      4.78280        -0.000911      0.001595      0.001611
     13.76898     19.66101      4.68381         0.000208     -0.000936     -0.000071
      0.92142     16.57181      5.95164         0.005611     -0.000554     -0.001094
     12.54466      4.31817      3.85905        -0.001485      0.002062     -0.000088
     16.84530     12.05809      0.98988         0.001150      0.001506      0.000011
     14.32176     16.20294      6.11243        -0.001983      0.000955      0.001137
      9.23013      4.38238      5.93078         0.001690     -0.001503      0.002234
      5.33174      2.56450      7.49705        -0.001961      0.001898      0.003377
     18.08826      9.91621      6.85226         0.002242      0.000152     -0.002673
     14.85983     13.98153      0.32104         0.002827     -0.000971      0.000130
     13.75530      4.67975      0.20967         0.003316      0.000319     -0.000981
     12.52474     20.00424      7.79753         0.001025     -0.000398     -0.000073
     17.36649      3.59313      7.65417        -0.000746     -0.000519     -0.000693
     16.21995      6.70425      3.60570        -0.000528     -0.000083      0.002157
     16.74218     18.72618      7.24050         0.008140      0.001485     -0.004658
     10.72320      3.77332      0.13210        -0.000915      0.000056      0.001644
      7.09587     11.99168      2.87995         0.000498      0.001147     -0.000789
     10.51524     20.32355     -0.45861        -0.001726     -0.001373      0.000922
     18.81595     14.29160     -0.77680        -0.002046     -0.005649      0.002228
      1.28836     21.45378      2.66762        -0.002199     -0.001472      0.001339
     10.63972     20.84214      4.26669        -0.000668      0.000582      0.000643
     12.99813     22.99412      4.02251         0.000442      0.001835      0.000745
      4.59118      4.22479      3.82728         0.000381     -0.001250      0.001520
     11.95087     17.91948      7.55084        -0.002877      0.000305      0.000651
     13.52531      8.28989      4.43403         0.001313      0.000111     -0.001680
     21.50524     17.06462      4.34515         0.003668     -0.000650      0.002826
     25.32190     16.76606      0.19244        -0.000479     -0.000476     -0.000712
      2.32300     21.84537      7.77879        -0.000325     -0.000335      0.003712
      6.42471     16.15341      1.27834         0.000098      0.001180     -0.000170
      5.55088     22.17147      6.32004         0.001037     -0.002484      0.001018
     21.96857     14.72324      1.90984         0.006756     -0.003383     -0.003844
     16.55423      1.17796      2.88954        -0.002812      0.002556      0.000531
      4.88938      6.21891      8.65728         0.000083     -0.002674     -0.001314
     17.89031      0.78259      6.00571         0.000672     -0.000894     -0.000846
     22.70802      1.95238      2.01733        -0.001961      0.000814     -0.002012
     18.94851     20.68400      0.93607        -0.001103      0.000746     -0.002252
     -0.10775      0.97089      6.61552         0.000095     -0.001221     -0.003011
     -3.17410      1.81813      7.69252         0.000500     -0.001091      0.001097
     14.07443     21.17681     -1.01563        -0.001734     -0.000483      0.000768
      5.47840     16.19061      8.13248        -0.001555      0.003815     -0.000164
      0.81695     13.10454      7.46843        -0.000386      0.001982      0.000180
     10.50761     12.12792      0.47978         0.000618      0.000434      0.001363
      7.68556     18.24997      4.07359        -0.001818      0.000397     -0.001355
     17.44032     14.97495      6.30204        -0.002418      0.002666      0.001139
     -2.31333      5.37020      7.56549        -0.000816      0.001411     -0.000799
     -3.85351     21.19444      8.92380         0.000682     -0.001554     -0.001180
     22.32542     15.22399     -1.18015         0.001876     -0.003551     -0.000052
     -1.16391      3.89839      2.66935        -0.001951     -0.001235     -0.000053
      7.26172     19.02295     -0.78544        -0.004514     -0.004072      0.000550
     24.33809      8.05348     -0.18889         0.001652      0.000881     -0.001728
     24.10434      6.94939      1.48543         0.000405     -0.000008      0.001975
     19.01253     16.80942      0.75860         0.000640      0.000914      0.002228
     12.75594      9.68651      0.60862         0.000455     -0.000615      0.000599
     15.26622     12.27663      6.82261        -0.002713      0.001898     -0.003052
      5.11968     15.28341      3.01012         0.001696      0.000640      0.000951
 -----------------------------------------------------------------------------------
    total drift:                                0.068827     -0.057884     -0.055508


--------------------------------------------------------------------------------------------------------



  FREE ENERGIE OF THE ION-ELECTRON SYSTEM (eV)
  ---------------------------------------------------
  free  energy   TOTEN  =     -1482.80838578 eV

  energy  without entropy=    -1482.71868810  energy(sigma->0) =    -1482.76353694
 
 d Force = 0.7183401E-04[ 0.592E-04, 0.845E-04]  d Energy = 0.5869976E-04 0.131E-04
 d Force = 0.5326086E-01[ 0.532E-01, 0.533E-01]  d Ewald  = 0.5326105E-01-0.190E-06


--------------------------------------------------------------------------------------------------------


    POTLOK:  cpu time    0.2121: real time    0.2141


--------------------------------------------------------------------------------------------------------


 stress matrix after NEB project (eV)
      0.64753      0.80926      0.63485
      0.80926      1.71093      2.22209
      0.63485      2.22209      3.67394
  FORCES: max atom, RMS     0.017306    0.004065
  FORCE total and by dimension    0.065172    0.015156
  Stress total and by dimension    5.369884    3.673943
 Conjugate gradient step on ions:
 trial-energy change:   -0.000059  1 .order   -0.000072   -0.000084   -0.000059
  (g-gl).g = 0.308E-03      g.g   = 0.276E-03  gl.gl    = 0.592E-03
 g(Force)  = 0.276E-03   g(Stress)= 0.000E+00 ortho     = 0.375E-05
 gamma     =   0.52083
 trial     =   0.30341
 opt step  =   1.01480  (harmonic =   1.01480) maximal distance =0.00136411
 next E    = -1482.808468   (d E  =  -0.00014)


--------------------------------------------------------------------------------------------------------


  
 reached required accuracy - stopping structural energy minimisation
 writing wavefunctions
     LOOP+:  cpu time  237.1173: real time  239.4569
    4ORBIT:  cpu time    0.0000: real time    0.0001



 total charge

# of ion       s       p       d       tot
------------------------------------------
    1        0.440   0.592   4.433   5.465
    2        0.466   0.609   4.414   5.489
    3        0.428   0.580   4.305   5.313
    4        0.483   0.541   4.419   5.443
    5        0.434   0.609   4.467   5.509
    6        0.435   0.569   4.400   5.404
    7        0.410   0.515   4.370   5.296
    8        0.425   0.561   4.459   5.445
    9        0.481   0.585   4.411   5.477
   10        0.410   0.563   4.440   5.413
   11        0.436   0.562   4.413   5.410
   12        0.487   0.594   4.392   5.474
   13        0.417   0.561   4.369   5.347
   14        0.454   0.587   4.429   5.470
   15        0.446   0.576   4.433   5.454
   16        0.412   0.561   4.406   5.378
   17        0.464   0.576   4.476   5.516
   18        0.405   0.575   4.433   5.413
   19        0.413   0.571   4.346   5.330
   20        0.413   0.576   4.366   5.355
   21        0.461   0.561   4.400   5.422
   22        0.408   0.521   4.371   5.301
   23        0.437   0.590   4.405   5.432
   24        0.400   0.548   4.393   5.341
   25        0.405   0.544   4.373   5.321
   26        0.419   0.561   4.489   5.469
   27        0.386   0.523   4.349   5.258
   28        0.407   0.552   4.417   5.375
   29        0.480   0.574   4.389   5.443
   30        0.432   0.610   4.459   5.500
   31        0.416   0.578   4.364   5.359
   32        0.429   0.607   4.432   5.468
   33        0.442   0.575   4.406   5.423
   34        0.484   0.590   4.454   5.528
   35        0.466   0.593   4.469   5.528
   36        0.415   0.558   4.411   5.385
   37        0.450   0.544   4.421   5.416
   38        0.444   0.628   4.423   5.495
   39        0.409   0.582   4.389   5.380
   40        0.409   0.556   4.336   5.301
   41        0.433   0.581   4.457   5.471
   42        0.416   0.536   4.415   5.367
   43        0.425   0.567   4.400   5.391
   44        0.462   0.560   4.437   5.459
   45        0.434   0.586   4.417   5.437
   46        0.436   0.561   4.368   5.365
   47        0.486   0.586   4.431   5.503
   48        0.400   0.536   4.395   5.331
   49        1.378   2.245   0.000   3.623
   50        1.381   2.243   0.000   3.625
   51        1.383   2.245   0.000   3.628
   52        1.359   2.343   0.000   3.702
   53        1.366   2.299   0.000   3.665
   54        1.371   2.276   0.000   3.647
   55        1.374   2.255   0.000   3.629
   56        1.364   2.321   0.000   3.685
   57        1.375   2.303   0.000   3.678
   58        1.364   2.304   0.000   3.669
   59        1.352   2.358   0.000   3.710
   60        1.375   2.276   0.000   3.651
   61        1.387   2.257   0.000   3.643
   62        1.376   2.261   0.000   3.637
   63        1.382   2.261   0.000   3.643
   64        1.372   2.306   0.000   3.678
   65        1.379   2.249   0.000   3.628
   66        1.374   2.286   0.000   3.660
   67        1.379   2.273   0.000   3.652
   68        1.373   2.289   0.000   3.663
   69        1.378   2.247   0.000   3.625
   70        1.382   2.253   0.000   3.634
   71        1.394   2.240   0.000   3.634
   72        1.379   2.275   0.000   3.654
   73        1.385   2.265   0.000   3.649
   74        1.378   2.261   0.000   3.639
   75        1.380   2.247   0.000   3.628
   76        1.369   2.301   0.000   3.670
   77        1.373   2.292   0.000   3.664
   78        1.368   2.321   0.000   3.690
   79        1.373   2.313   0.000   3.687
   80        1.364   2.289   0.000   3.653
   81        1.395   2.223   0.000   3.618
   82        1.374   2.294   0.000   3.668
   83        1.371   2.283   0.000   3.654
   84        1.373   2.276   0.000   3.649
   85        1.380   2.274   0.000   3.655
   86        1.373   2.267   0.000   3.640
   87        1.384   2.235   0.000   3.619
   88        1.361   2.324   0.000   3.686
   89        1.369   2.323   0.000   3.692
   90        1.386   2.228   0.000   3.614
   91        1.372   2.291   0.000   3.662
   92        1.373   2.294   0.000   3.666
   93        1.382   2.249   0.000   3.631
   94        1.364   2.323   0.000   3.687
   95        1.384   2.283   0.000   3.666
   96        1.386   2.270   0.000   3.656
   97        1.334   2.368   0.000   3.703
   98        1.382   2.220   0.000   3.603
   99        1.356   2.339   0.000   3.695
  100        1.376   2.246   0.000   3.623
  101        1.379   2.267   0.000   3.646
  102        1.380   2.236   0.000   3.616
  103        1.371   2.282   0.000   3.653
  104        1.384   2.268   0.000   3.652
  105        1.347   2.354   0.000   3.701
  106        1.378   2.278   0.000   3.657
  107        1.390   2.227   0.000   3.617
  108        1.395   2.234   0.000   3.629
  109        1.382   2.277   0.000   3.659
  110        1.376   2.252   0.000   3.628
  111        1.368   2.318   0.000   3.686
  112        1.380   2.262   0.000   3.641
  113        1.384   2.298   0.000   3.681
  114        1.387   2.162   0.000   3.549
  115        1.371   2.313   0.000   3.683
  116        1.379   2.259   0.000   3.638
  117        1.364   2.327   0.000   3.691
  118        1.378   2.253   0.000   3.631
  119        1.376   2.251   0.000   3.627
  120        1.393   2.232   0.000   3.624
  121        1.368   2.313   0.000   3.681
  122        1.389   2.235   0.000   3.624
  123        1.332   2.352   0.000   3.684
  124        1.377   2.267   0.000   3.644
  125        1.378   2.273   0.000   3.651
  126        1.370   2.284   0.000   3.653
  127        1.370   2.308   0.000   3.678
  128        1.380   2.220   0.000   3.600
  129        1.369   2.278   0.000   3.648
  130        1.367   2.309   0.000   3.676
  131        1.376   2.285   0.000   3.660
  132        1.375   2.310   0.000   3.685
  133        1.382   2.280   0.000   3.662
  134        1.389   2.222   0.000   3.611
  135        1.368   2.318   0.000   3.685
  136        1.337   2.359   0.000   3.696
  137        1.361   2.335   0.000   3.696
  138        1.376   2.261   0.000   3.637
  139        1.372   2.307   0.000   3.680
  140        1.383   2.232   0.000   3.615
  141        1.370   2.281   0.000   3.651
  142        1.384   2.216   0.000   3.600
  143        1.367   2.297   0.000   3.664
  144        1.387   2.233   0.000   3.620
  145        1.355   2.333   0.000   3.688
  146        1.357   2.321   0.000   3.678
  147        1.392   2.201   0.000   3.593
  148        1.386   2.285   0.000   3.671
  149        1.372   2.289   0.000   3.661
  150        1.377   2.273   0.000   3.650
  151        1.369   2.281   0.000   3.650
  152        1.373   2.296   0.000   3.669
  153        1.382   2.281   0.000   3.662
  154        1.365   2.286   0.000   3.651
  155        1.380   2.282   0.000   3.662
  156        1.384   2.261   0.000   3.645
  157        1.362   2.332   0.000   3.694
  158        1.381   2.235   0.000   3.616
  159        1.391   2.241   0.000   3.632
  160        1.371   2.295   0.000   3.666
  161        1.351   2.374   0.000   3.725
  162        1.404   2.197   0.000   3.601
  163        1.382   2.226   0.000   3.608
  164        1.376   2.312   0.000   3.688
  165        1.373   2.308   0.000   3.681
  166        1.376   2.236   0.000   3.612
  167        1.374   2.299   0.000   3.673
  168        1.366   2.321   0.000   3.687
  169        1.380   2.224   0.000   3.604
  170        1.382   2.255   0.000   3.637
  171        1.385   2.235   0.000   3.620
  172        1.385   2.218   0.000   3.602
  173        1.385   2.233   0.000   3.618
  174        1.343   2.325   0.000   3.668
  175        1.358   2.346   0.000   3.704
  176        1.373   2.284   0.000   3.658
  177        1.352   2.353   0.000   3.705
  178        1.364   2.325   0.000   3.689
  179        1.379   2.243   0.000   3.622
  180        1.370   2.255   0.000   3.626
  181        1.368   2.253   0.000   3.621
  182        1.368   2.290   0.000   3.658
  183        1.388   2.226   0.000   3.614
  184        1.390   2.207   0.000   3.598
  185        1.380   2.273   0.000   3.653
  186        1.384   2.244   0.000   3.629
  187        1.375   2.273   0.000   3.648
  188        1.349   2.343   0.000   3.692
  189        1.387   2.225   0.000   3.613
  190        1.375   2.249   0.000   3.624
  191        1.384   2.254   0.000   3.638
  192        1.364   2.346   0.000   3.710
  193        1.372   2.278   0.000   3.650
  194        1.380   2.248   0.000   3.629
  195        1.367   2.322   0.000   3.689
  196        1.390   2.185   0.000   3.574
  197        1.382   2.219   0.000   3.601
  198        1.367   2.294   0.000   3.661
  199        1.362   2.297   0.000   3.659
  200        1.389   2.251   0.000   3.641
  201        1.363   2.320   0.000   3.683
  202        1.379   2.248   0.000   3.627
  203        1.367   2.296   0.000   3.663
  204        1.374   2.275   0.000   3.649
  205        1.368   2.331   0.000   3.699
  206        1.364   2.312   0.000   3.676
  207        1.362   2.308   0.000   3.670
  208        1.380   2.236   0.000   3.615
  209        1.392   2.245   0.000   3.637
  210        1.366   2.327   0.000   3.693
  211        1.384   2.213   0.000   3.597
  212        1.381   2.258   0.000   3.640
  213        1.379   2.278   0.000   3.657
  214        1.386   2.215   0.000   3.601
  215        1.380   2.234   0.000   3.613
  216        1.371   2.275   0.000   3.646
  217        1.375   2.307   0.000   3.682
  218        1.370   2.314   0.000   3.684
  219        1.378   2.280   0.000   3.658
  220        1.363   2.328   0.000   3.691
  221        1.371   2.314   0.000   3.686
  222        1.383   2.241   0.000   3.624
  223        1.368   2.288   0.000   3.656
  224        1.353   2.327   0.000   3.680
  225        1.370   2.307   0.000   3.677
  226        1.389   2.234   0.000   3.623
  227        1.380   2.276   0.000   3.656
  228        1.372   2.289   0.000   3.661
  229        1.377   2.249   0.000   3.626
  230        1.379   2.284   0.000   3.663
  231        1.356   2.375   0.000   3.730
  232        1.368   2.304   0.000   3.672
  233        1.379   2.300   0.000   3.679
  234        1.386   2.259   0.000   3.645
  235        1.377   2.277   0.000   3.653
  236        1.380   2.279   0.000   3.659
  237        1.390   2.232   0.000   3.622
  238        1.376   2.267   0.000   3.643
  239        1.391   2.229   0.000   3.619
  240        1.367   2.285   0.000   3.652
  241        1.361   2.330   0.000   3.691
  242        1.378   2.282   0.000   3.660
  243        1.377   2.264   0.000   3.641
  244        1.369   2.290   0.000   3.658
  245        1.364   2.299   0.000   3.663
  246        1.349   2.317   0.000   3.666
  247        1.368   2.326   0.000   3.694
  248        1.388   2.263   0.000   3.651
  249        1.372   2.299   0.000   3.671
  250        1.396   2.220   0.000   3.616
  251        1.374   2.305   0.000   3.680
  252        1.371   2.281   0.000   3.652
  253        1.371   2.289   0.000   3.660
  254        1.379   2.278   0.000   3.658
  255        1.375   2.257   0.000   3.632
  256        1.371   2.322   0.000   3.692
  257        0.088   0.163   0.000   0.251
--------------------------------------------------
tot        306.821 501.400 211.6481019.869
 

 total amount of memory used by VASP MPI-rank0    98033. kBytes
=======================================================================

   base      :      30000. kBytes
   nonlr-proj:       5481. kBytes
   fftplans  :      12360. kBytes
   grid      :      23466. kBytes
   one-center:        256. kBytes
   wavefun   :      26470. kBytes
 
  
  
 General timing and accounting informations for this job:
 ========================================================
  
                  Total CPU time used (sec):    89521.562
                            User time (sec):    89345.538
                          System time (sec):      176.027
                         Elapsed time (sec):    90417.741
  
                   Maximum memory used (kb):      696312.
                   Average memory used (kb):          N/A
  
                          Minor page faults:     13783999
                          Major page faults:            1
                 Voluntary context switches:        19828
