 vasp.6.4.2 20Jul23 (build Jun  3 2025 15:36:07) complex                         
 executed on              LinuxNV date 2025.06.27  12:57:04
 running    7 mpi-ranks, with    1 threads/rank, on    7 nodes
 each image running on    1 cores
 distrk:  each k-point on    1 cores,    1 groups
 distr:  one band on NCORE=   1 cores,    1 groups
 OpenACC runtime initialized ...    7 GPUs detected


--------------------------------------------------------------------------------------------------------


 INCAR:
   SYSTEM = Si
   ISTART = 1
   ICHARG = 2
   NCORE = 8
   ISPIN = 2
   NELECT = 1080
   NELM = 20
   ENCUT = 400
   PREC = Accurate
   ISMEAR = 0
   SIGMA = 0.01
   EDIFF = 1E-10
   IBRION = 3
   NSW = 500
   POTIM = 0
   ISIF = 0
   IOPT = 1
   EDIFFG = -0.010
   ICHAIN = 0
   IMAGES = 7
   SPRING = -5.0
   LCLIMB = .FALSE.

 POTCAR:   PAW_PBE F 08Apr2002                    
 POTCAR:    PAW_PBE Li_sv 10Sep2004               
 -----------------------------------------------------------------------------
|                                                                             |
|           W    W    AA    RRRRR   N    N  II  N    N   GGGG   !!!           |
|           W    W   A  A   R    R  NN   N  II  NN   N  G    G  !!!           |
|           W    W  A    A  R    R  N N  N  II  N N  N  G       !!!           |
|           W WW W  AAAAAA  RRRRR   N  N N  II  N  N N  G  GGG   !            |
|           WW  WW  A    A  R   R   N   NN  II  N   NN  G    G                |
|           W    W  A    A  R    R  N    N  II  N    N   GGGG   !!!           |
|                                                                             |
|     You use a magnetic or noncollinear calculation, but did not specify     |
|     the initial magnetic moment with the MAGMOM tag. Note that a            |
|     default of 1 will be used for all atoms. This ferromagnetic setup       |
|     may break the symmetry of the crystal, in particular it may rule        |
|     out finding an antiferromagnetic solution. Thence, we recommend         |
|     setting the initial magnetic moment manually or verifying carefully     |
|     that this magnetic setup is desired.                                    |
|                                                                             |
 -----------------------------------------------------------------------------

 POTCAR:   PAW_PBE F 08Apr2002                    
   VRHFIN =F: s2p5                                                                                  
   LEXCH  = PE                                                                                      
   EATOM  =   659.4942 eV,   48.4715 Ry                                                             
                                                                                                    
   TITEL  = PAW_PBE F 08Apr2002                                                                     
   LULTRA =        F    use ultrasoft PP ?                                                          
   IUNSCR =        0    unscreen: 0-lin 1-nonlin 2-no                                               
   RPACOR =     .000    partial core radius                                                         
   POMASS =   18.998; ZVAL   =    7.000    mass and valenz                                          
   RCORE  =    1.520    outmost cutoff radius                                                       
   RWIGS  =    1.500; RWIGS  =     .794    wigner-seitz radius (au A)                               
   ENMAX  =  400.000; ENMIN  =  300.000 eV                                                          
   ICORE  =        2    local potential                                                             
   LCOR   =        T    correct aug charges                                                         
   LPAW   =        T    paw PP                                                                      
   EAUG   =  613.614                                                                                
   DEXC   =     .000                                                                                
   RMAX   =    2.254    core radius for proj-oper                                                   
   RAUG   =    1.300    factor for augmentation sphere                                              
   RDEP   =    1.539    radius for radial grids                                                     
   QCUT   =   -5.545; QGAM   =   11.091    optimization parameters                                  
                                                                                                    
   Description                                                                                      
     l     E      TYP  RCUT    TYP  RCUT                                                            
     0   .000     23  1.200                                                                         
     0  -.700     23  1.200                                                                         
     1   .000     23  1.520                                                                         
     1   .100     23  1.520                                                                         
     2   .000      7  1.500                                                                         
  local pseudopotential read in
  atomic valenz-charges read in
  non local Contribution for L=            0  read in
    real space projection operators read in
  non local Contribution for L=            0  read in
    real space projection operators read in
  non local Contribution for L=            1  read in
    real space projection operators read in
  non local Contribution for L=            1  read in
    real space projection operators read in
    PAW grid and wavefunctions read in
 
   number of l-projection  operators is LMAX  =            4
   number of lm-projection operators is LMMAX =            8
 
 POTCAR:    PAW_PBE Li_sv 10Sep2004               
   VRHFIN =Li: 1s2s2p                                                                               
   LEXCH  = PE                                                                                      
   EATOM  =   202.7858 eV,   14.9043 Ry                                                             
                                                                                                    
   TITEL  = PAW_PBE Li_sv 10Sep2004                                                                 
   LULTRA =        F    use ultrasoft PP ?                                                          
   IUNSCR =        0    unscreen: 0-lin 1-nonlin 2-no                                               
   RPACOR =     .000    partial core radius                                                         
   POMASS =    7.010; ZVAL   =    3.000    mass and valenz                                          
   RCORE  =    1.700    outmost cutoff radius                                                       
   RWIGS  =    2.050; RWIGS  =    1.085    wigner-seitz radius (au A)                               
   ENMAX  =  499.034; ENMIN  =  374.276 eV                                                          
   ICORE  =        2    local potential                                                             
   LCOR   =        T    correct aug charges                                                         
   LPAW   =        T    paw PP                                                                      
   EAUG   =  628.945                                                                                
   RMAX   =    2.064    core radius for proj-oper                                                   
   RAUG   =    1.300    factor for augmentation sphere                                              
   RDEP   =    1.728    radius for radial grids                                                     
   QCUT   =   -6.056; QGAM   =   12.112    optimization parameters                                  
                                                                                                    
   Description                                                                                      
     l     E      TYP  RCUT    TYP  RCUT                                                            
     0   .000     23  1.400                                                                         
     0   .000     23  1.700                                                                         
     1   .000     23  1.400                                                                         
     2   .000     23  1.400                                                                         
  local pseudopotential read in
  atomic valenz-charges read in
  non local Contribution for L=            0  read in
    real space projection operators read in
  non local Contribution for L=            0  read in
    real space projection operators read in
  non local Contribution for L=            1  read in
    real space projection operators read in
    PAW grid and wavefunctions read in
 
   number of l-projection  operators is LMAX  =            3
   number of lm-projection operators is LMMAX =            5
 
 -----------------------------------------------------------------------------
|                                                                             |
|               ----> ADVICE to this user running VASP <----                  |
|                                                                             |
|     You have a (more or less) 'large supercell' and for larger cells it     |
|     might be more efficient to use real-space projection operators.         |
|     Therefore, try LREAL= Auto in the INCAR file.                           |
|     Mind: If you want to do very accurate calculations, keep the            |
|     reciprocal projection scheme (i.e. LREAL=.FALSE.).                      |
|                                                                             |
 -----------------------------------------------------------------------------

 PAW_PBE F 08Apr2002                    :
 energy of atom  1       EATOM= -659.4942
 kinetic energy error for atom=    0.1980 (will be added to EATOM!!)
  PAW_PBE Li_sv 10Sep2004               :
 energy of atom  2       EATOM= -202.7858
 kinetic energy error for atom=    0.0926 (will be added to EATOM!!)
 
 
 POSCAR: Li   F
  positions in direct lattice
  No initial velocities read in
 exchange correlation table for  LEXCH =        8
   RHO(1)=    0.500       N(1)  =     2000
   RHO(2)=  100.500       N(2)  =     4000

 VTST: version 4.1, (05/19/21)

 CHAIN: initializing optimizer
 
 OPT: Using LBFGS optimizer
 OPT: LBFGS, Init
 OPT: LBFGS, MEMORY             20
 OPT: LBFGS, IMAGES              7
 OPT: LBFGS, MAXMOVE      0.200000
 OPT: LBFGS, LGLOBAL      T
 OPT: LBFGS, INVCURV      0.010000
 OPT: LBFGS, LLINEOPT      F
 OPT: LBFGS, FDSTEP       0.005000
 OPT: LBFGS, LAUTOSCALE      T
 OPT: LBFGS, DAMPING      2.000000
 
 CHAIN: Read ICHAIN             0
 CHAIN: Running the NEB
 NEB:          SPRING     -5.000000
 NEB:          LCLIMB      F
 NEB:     LTANGENTOLD      F
 NEB:           LDNEB      F
 NEB:        LDNEBORG      F
 NEB:        LNEBCELL      F
 NEB:          EFIRST      0.000000
 NEB:           ELAST      0.000000
 
 POSCAR: Li   F
  positions in direct lattice
  No initial velocities read in
 
 POSCAR: Li   F
  positions in direct lattice
  No initial velocities read in
 
 POSCAR: Li   F
  positions in direct lattice
  No initial velocities read in
 
 POSCAR: Li   F
  positions in direct lattice
  No initial velocities read in
 


--------------------------------------------------------------------------------------------------------


 ion  position               nearest neighbor table
   1  1.000  1.000  1.000- 208 2.01 115 2.01 138 2.01 136 2.01 109 2.01 190 2.02
   2  0.000  1.000  0.333- 116 2.00 136 2.01 110 2.01 137 2.01 209 2.01 191 2.02
   3  0.000  1.000  0.667- 138 2.01 192 2.01 210 2.01 137 2.01 111 2.02 117 2.02
   4  0.000  0.333  1.000- 141 2.00 109 2.01 139 2.01 112 2.01 211 2.01 193 2.02
   5  0.999  0.334  0.334- 212 2.00 140 2.00 113 2.00 139 2.02 110 2.02 194 2.02
   6  0.002  0.332  0.666- 114 1.94 111 2.00 140 2.01 141 2.02 213 2.03 195 2.04
   7  0.000  0.667  1.000- 115 2.01 196 2.01 214 2.01 112 2.01 142 2.02 144 2.02
   8  0.002  0.666  0.332- 143 1.94 142 2.00 113 2.01 116 2.02 215 2.03 197 2.04
   9  0.003  0.665  0.665- 167 1.80 198 2.01 117 2.03 144 2.03 143 2.09 114 2.09
  10  0.333  1.000  1.000- 199 2.01 124 2.01 147 2.01 190 2.01 145 2.01 118 2.01
  11  0.333  0.000  0.333- 200 2.01 145 2.01 191 2.01 146 2.01 125 2.01 119 2.02
  12  0.333  0.000  0.667- 201 1.99 120 2.01 192 2.01 147 2.01 126 2.02 146 2.02
  13  0.333  0.333  0.000- 202 2.01 118 2.01 193 2.01 121 2.01 150 2.01 148 2.02
  14  0.333  0.333  0.333- 203 2.00 119 2.01 148 2.01 194 2.01 149 2.01 122 2.01
  15  0.334  0.332  0.667- 195 1.98 204 1.99 120 2.00 150 2.01 149 2.02 123 2.02
  16  0.333  0.667  0.000- 205 1.99 151 2.01 196 2.01 124 2.01 153 2.02 121 2.02
  17  0.334  0.667  0.332- 197 1.98 206 1.99 151 2.00 125 2.01 122 2.02 152 2.02
  18  0.334  0.667  0.667- 207 1.99 198 1.99 126 2.01 153 2.01 152 2.03 123 2.03
  19  0.667  1.000  1.000- 156 2.00 133 2.00 208 2.01 199 2.02 127 2.02 154 2.02
  20  0.666  1.000  0.333- 155 2.01 154 2.01 128 2.01 134 2.01 200 2.02 209 2.02
  21  0.665  0.001  0.667- 135 1.95 129 2.00 156 2.01 201 2.02 155 2.03 210 2.03
  22  0.666  0.333  0.000- 130 2.01 157 2.01 127 2.01 159 2.01 202 2.02 211 2.02
  23  0.667  0.333  0.333- 212 2.01 157 2.01 128 2.01 158 2.02 131 2.02 203 2.03
  24  0.666  0.333  0.666- 129 2.00 158 2.01 204 2.02 132 2.02 159 2.02 213 2.02
  25  0.665  0.667  0.001- 162 1.95 160 2.00 133 2.01 205 2.02 130 2.03 214 2.03
  26  0.666  0.666  0.333- 160 2.00 131 2.01 206 2.02 161 2.02 134 2.02 215 2.02
  27  0.662  0.668  0.668- 216 1.85 207 1.98 161 2.03 132 2.03 135 2.08 162 2.08
  28  1.000  0.167  0.167- 181 2.01 136 2.01 109 2.01 110 2.02 139 2.02 163 2.02
  29  0.999  0.166  0.500- 182 2.00 137 2.00 110 2.01 111 2.01 164 2.02 140 2.03
  30  0.000  0.166  0.833- 138 2.00 141 2.00 109 2.01 183 2.01 165 2.02 111 2.02
  31  0.999  0.500  0.166- 184 2.00 112 2.00 139 2.01 142 2.01 166 2.02 113 2.03
  32  0.972  0.489  0.489- 167 1.53 185 1.76 113 1.92 140 1.92 143 2.22 114 2.22
  33  0.001  0.499  0.832- 114 1.99 144 2.01 141 2.02 186 2.02 112 2.03 168 2.04
  34  0.000  0.833  0.166- 115 2.00 116 2.00 136 2.01 187 2.01 169 2.02 142 2.02
  35  0.001  0.832  0.499- 143 1.99 117 2.01 116 2.02 188 2.02 137 2.03 170 2.04
  36  0.999  0.833  0.833- 189 1.98 144 2.02 117 2.02 138 2.02 115 2.02 171 2.03
  37  0.333  0.166  0.166- 172 2.01 118 2.01 145 2.01 163 2.01 148 2.02 119 2.02
  38  0.334  0.166  0.500- 173 1.99 146 1.99 119 2.01 120 2.01 164 2.02 149 2.05
  39  0.334  0.166  0.834- 174 2.01 147 2.01 165 2.01 118 2.01 150 2.01 120 2.02
  40  0.334  0.500  0.166- 175 1.99 121 1.99 148 2.01 151 2.01 166 2.02 122 2.05
  41  0.342  0.500  0.500- 176 1.93 149 1.99 122 1.99 123 1.99 152 1.99
  42  0.335  0.500  0.836- 177 1.98 121 1.99 168 2.00 150 2.01 153 2.02 123 2.07
  43  0.334  0.834  0.166- 178 2.01 124 2.01 169 2.01 145 2.01 125 2.01 151 2.02
  44  0.335  0.836  0.500- 179 1.98 146 1.99 170 2.00 125 2.01 126 2.02 152 2.07
  45  0.333  0.834  0.834- 180 2.00 147 2.01 124 2.01 171 2.01 153 2.02 126 2.02
  46  0.667  0.166  0.166- 154 2.01 128 2.01 127 2.01 157 2.01 181 2.02 172 2.02
  47  0.666  0.166  0.500- 158 1.98 155 1.99 128 2.01 173 2.02 129 2.02 182 2.02
  48  0.666  0.167  0.834- 156 2.00 127 2.01 174 2.01 159 2.01 129 2.02 183 2.02
  49  0.666  0.500  0.166- 131 1.98 130 1.99 157 2.01 175 2.02 160 2.02 184 2.02
  50  0.667  0.498  0.498- 185 1.93 176 2.00 131 2.03 158 2.03 161 2.03 132 2.03
  51  0.665  0.501  0.835- 162 1.98 130 2.01 177 2.02 159 2.02 132 2.03 186 2.03
  52  0.666  0.834  0.167- 133 2.00 154 2.01 178 2.01 134 2.01 160 2.02 187 2.02
  53  0.665  0.835  0.501- 135 1.98 155 2.01 179 2.02 134 2.02 161 2.03 188 2.03
  54  0.669  0.831  0.831- 189 2.01 135 2.01 162 2.01 133 2.05 156 2.05 180 2.06
  55  0.167  0.000  0.166- 190 2.01 136 2.01 191 2.01 169 2.01 145 2.01 163 2.02
  56  0.167  0.000  0.500- 170 1.98 164 1.99 137 2.01 146 2.02 191 2.02 192 2.02
  57  0.167  1.000  0.834- 138 2.00 147 2.01 190 2.01 165 2.01 171 2.01 192 2.01
  58  0.166  0.333  0.166- 163 2.00 139 2.00 193 2.00 148 2.01 166 2.02 194 2.05
  59  0.166  0.325  0.501- 164 1.94 140 1.98 195 1.99 194 2.00 149 2.00
  60  0.167  0.332  0.834- 165 2.00 193 2.01 141 2.01 150 2.01 168 2.02 195 2.04
  61  0.167  0.668  0.165- 196 2.00 197 2.00 169 2.00 151 2.01 142 2.01 166 2.03
  62  0.172  0.676  0.499- 143 1.89 170 1.94 152 1.95 198 2.02 197 2.03 167 2.20
  63  0.167  0.667  0.834- 196 2.00 171 2.00 144 2.00 153 2.01 168 2.03 198 2.04
  64  0.500  0.000  0.166- 199 2.01 154 2.01 178 2.01 172 2.01 200 2.01 145 2.01
  65  0.500  0.000  0.500- 173 2.01 155 2.01 146 2.01 201 2.01 200 2.02 179 2.02
  66  0.500  1.000  0.833- 156 2.00 180 2.01 199 2.01 201 2.02 174 2.02 147 2.02
  67  0.500  0.333  0.167- 157 2.01 172 2.01 202 2.01 203 2.01 175 2.01 148 2.02
  68  0.500  0.332  0.500- 158 1.98 173 2.00 203 2.01 204 2.02 176 2.02 149 2.04
  69  0.500  0.333  0.834- 174 2.01 177 2.01 159 2.01 202 2.01 150 2.01 204 2.02
  70  0.500  0.667  0.167- 205 1.99 151 2.01 206 2.01 160 2.01 178 2.01 175 2.02
  71  0.501  0.667  0.500- 161 1.99 179 2.00 206 2.01 207 2.02 152 2.03 176 2.03
  72  0.498  0.667  0.835- 162 1.95 153 2.00 180 2.01 205 2.01 177 2.03 207 2.04
  73  0.833  0.000  0.167- 208 1.99 181 2.00 209 2.01 187 2.01 154 2.02 136 2.02
  74  0.833  1.000  0.500- 182 2.01 188 2.01 209 2.01 137 2.02 155 2.02 210 2.02
  75  0.833  0.001  0.835- 189 1.95 183 2.00 208 2.02 156 2.02 138 2.03 210 2.03
  76  0.833  0.332  0.166- 212 1.98 211 2.00 181 2.01 157 2.02 139 2.02 184 2.02
  77  0.832  0.330  0.498- 185 1.91 182 1.98 158 2.03 213 2.03 212 2.04 140 2.05
  78  0.833  0.333  0.834- 183 2.01 211 2.01 186 2.01 159 2.02 141 2.02 213 2.02
  79  0.833  0.667  0.167- 214 2.00 187 2.01 215 2.01 160 2.02 184 2.02 142 2.02
  80  0.828  0.670  0.498- 161 1.96 188 1.98 215 1.99 185 2.21
  81  0.833  0.668  0.837- 216 1.85 214 1.98 144 2.02 186 2.03 189 2.08 162 2.09
  82  0.167  0.166  0.000- 190 2.01 109 2.01 193 2.01 165 2.01 118 2.01 163 2.02
  83  0.166  0.166  0.333- 163 2.00 110 2.00 191 2.00 119 2.01 164 2.02 194 2.05
  84  0.167  0.165  0.668- 192 2.00 195 2.00 165 2.00 120 2.01 111 2.01 164 2.03
  85  0.167  0.500  0.000- 168 1.98 166 1.99 112 2.01 121 2.02 193 2.02 196 2.02
  86  0.166  0.501  0.325- 166 1.94 113 1.98 197 1.99 194 2.00 122 2.00
  87  0.172  0.499  0.676- 114 1.89 168 1.94 123 1.95 198 2.02 195 2.03 167 2.20
  88  0.167  0.834  1.000- 115 2.00 124 2.01 190 2.01 169 2.01 171 2.01 196 2.01
  89  0.167  0.834  0.332- 169 2.00 191 2.01 116 2.01 125 2.01 170 2.02 197 2.04
  90  0.167  0.834  0.667- 192 2.00 171 2.00 117 2.00 126 2.01 170 2.03 198 2.04
  91  0.500  0.166  0.000- 199 2.01 127 2.01 174 2.01 172 2.01 202 2.01 118 2.01
  92  0.500  0.167  0.333- 128 2.01 172 2.01 200 2.01 203 2.01 173 2.01 119 2.02
  93  0.500  0.167  0.667- 201 1.99 120 2.01 204 2.01 129 2.01 174 2.01 173 2.02
  94  0.500  0.500  0.000- 175 2.01 130 2.01 121 2.01 205 2.01 202 2.02 177 2.02
  95  0.500  0.500  0.332- 131 1.98 175 2.00 203 2.01 206 2.02 176 2.02 122 2.04
  96  0.501  0.500  0.667- 132 1.99 177 2.00 204 2.01 207 2.02 123 2.03 176 2.03
  97  0.500  0.833  1.000- 133 2.00 180 2.01 199 2.01 205 2.02 178 2.02 124 2.02
  98  0.500  0.834  0.333- 178 2.01 179 2.01 134 2.01 200 2.01 125 2.01 206 2.02
  99  0.498  0.835  0.667- 135 1.95 126 2.00 180 2.01 201 2.01 179 2.03 207 2.04
 100  0.833  0.167  0.000- 208 1.99 181 2.00 211 2.01 183 2.01 127 2.02 109 2.02
 101  0.833  0.166  0.332- 212 1.98 209 2.00 181 2.01 128 2.02 110 2.02 182 2.02
 102  0.833  0.167  0.667- 210 2.00 183 2.01 213 2.01 129 2.02 182 2.02 111 2.02
 103  0.833  0.500  1.000- 184 2.01 186 2.01 211 2.01 112 2.02 130 2.02 214 2.02
 104  0.832  0.498  0.330- 185 1.91 184 1.98 131 2.03 215 2.03 212 2.04 113 2.05
 105  0.828  0.498  0.670- 132 1.96 186 1.98 213 1.99 185 2.21
 106  0.833  0.835  0.001- 189 1.95 187 2.00 208 2.02 133 2.02 115 2.03 214 2.03
 107  0.834  0.833  0.333- 187 2.01 209 2.01 188 2.01 116 2.02 134 2.02 215 2.02
 108  0.833  0.837  0.668- 216 1.85 210 1.98 117 2.02 188 2.03 189 2.08 135 2.09
 109  0.000  0.167  0.000-  82 2.01  28 2.01   4 2.01  30 2.01   1 2.01 100 2.02
 110  0.001  0.166  0.333-  83 2.00  29 2.01   2 2.01  28 2.02   5 2.02 101 2.02
 111  0.001  0.167  0.666-   6 2.00  29 2.01  84 2.01   3 2.02 102 2.02  30 2.02
 112  0.000  0.500  1.000-  31 2.00  85 2.01   4 2.01   7 2.01 103 2.02  33 2.03
 113  0.002  0.500  0.334-  32 1.92  86 1.98   5 2.00   8 2.01  31 2.03 104 2.05
 114  0.015  0.492  0.668- 167 1.57  87 1.89   6 1.94  33 1.99   9 2.09  32 2.22
 115  0.001  0.833  0.001-  34 2.00  88 2.00   7 2.01   1 2.01  36 2.02 106 2.03
 116  0.001  0.834  0.332-  34 2.00   2 2.00  89 2.01  35 2.02 107 2.02   8 2.02
 117  0.001  0.833  0.666-  90 2.00  35 2.01   3 2.02  36 2.02 108 2.02   9 2.03
 118  0.333  0.167  0.000-  13 2.01  37 2.01  39 2.01  82 2.01  10 2.01  91 2.01
 119  0.333  0.167  0.333-  14 2.01  83 2.01  38 2.01  37 2.02  11 2.02  92 2.02
 120  0.333  0.166  0.666-  15 2.00  12 2.01  84 2.01  93 2.01  38 2.01  39 2.02
 121  0.334  0.500  0.001-  42 1.99  40 1.99  94 2.01  13 2.01  85 2.02  16 2.02
 122  0.331  0.500  0.335-  41 1.99  86 2.00  14 2.01  17 2.02  95 2.04  40 2.05
 123  0.333  0.499  0.664-  87 1.95  41 1.99  15 2.02  18 2.03  96 2.03  42 2.07
 124  0.333  0.833  0.000-  43 2.01  45 2.01  88 2.01  10 2.01  16 2.01  97 2.02
 125  0.333  0.833  0.333-  44 2.01  17 2.01  89 2.01  98 2.01  11 2.01  43 2.01
 126  0.333  0.833  0.666-  99 2.00  18 2.01  90 2.01  44 2.02  12 2.02  45 2.02
 127  0.666  0.167  1.000-  22 2.01  48 2.01  91 2.01  46 2.01 100 2.02  19 2.02
 128  0.666  0.166  0.333-  92 2.01  20 2.01  46 2.01  47 2.01  23 2.01 101 2.02
 129  0.666  0.167  0.667-  21 2.00  24 2.00  93 2.01  48 2.02 102 2.02  47 2.02
 130  0.666  0.499  0.001-  49 1.99  22 2.01  94 2.01  51 2.01 103 2.02  25 2.03
 131  0.664  0.500  0.330-  95 1.98  49 1.98  26 2.01  23 2.02 104 2.03  50 2.03
 132  0.665  0.500  0.667- 105 1.96  96 1.99  24 2.02  51 2.03  27 2.03  50 2.03
 133  0.666  0.834  0.001-  52 2.00  97 2.00  19 2.00  25 2.01 106 2.02  54 2.05
 134  0.666  0.833  0.334-  98 2.01  20 2.01  52 2.01  26 2.02 107 2.02  53 2.02
 135  0.660  0.840  0.665-  99 1.95  21 1.95  53 1.98  54 2.01  27 2.08 108 2.09
 136  0.000  0.000  0.167-  55 2.01  28 2.01   2 2.01  34 2.01   1 2.01  73 2.02
 137  0.000  1.000  0.500-  29 2.00  56 2.01   2 2.01   3 2.01  74 2.02  35 2.03
 138  0.001  0.001  0.833-  30 2.00  57 2.00   3 2.01   1 2.01  36 2.02  75 2.03
 139  0.001  0.333  0.166-  58 2.00  31 2.01   4 2.01  28 2.02   5 2.02  76 2.02
 140  0.002  0.334  0.500-  32 1.92  59 1.98   5 2.00   6 2.01  29 2.03  77 2.05
 141  0.001  0.332  0.834-  30 2.00   4 2.00  60 2.01  33 2.02  78 2.02   6 2.02
 142  0.001  0.666  0.167-   8 2.00  31 2.01  61 2.01   7 2.02  79 2.02  34 2.02
 143  0.015  0.668  0.492- 167 1.57  62 1.89   8 1.94  35 1.99   9 2.09  32 2.22
 144  0.001  0.666  0.833-  63 2.00  33 2.01   7 2.02  36 2.02  81 2.02   9 2.03
 145  0.333  0.000  0.167-  11 2.01  37 2.01  43 2.01  55 2.01  10 2.01  64 2.01
 146  0.334  0.001  0.500-  44 1.99  38 1.99  65 2.01  11 2.01  56 2.02  12 2.02
 147  0.333  0.000  0.833-  39 2.01  45 2.01  57 2.01  10 2.01  12 2.01  66 2.02
 148  0.333  0.333  0.167-  14 2.01  58 2.01  40 2.01  37 2.02  13 2.02  67 2.02
 149  0.331  0.335  0.500-  41 1.99  59 2.00  14 2.01  15 2.02  68 2.04  38 2.05
 150  0.333  0.333  0.833-  42 2.01  15 2.01  60 2.01  69 2.01  13 2.01  39 2.01
 151  0.333  0.666  0.166-  17 2.00  16 2.01  61 2.01  70 2.01  40 2.01  43 2.02
 152  0.333  0.664  0.499-  62 1.95  41 1.99  17 2.02  18 2.03  71 2.03  44 2.07
 153  0.333  0.666  0.833-  72 2.00  18 2.01  63 2.01  42 2.02  16 2.02  45 2.02
 154  0.666  1.000  0.167-  20 2.01  52 2.01  64 2.01  46 2.01  73 2.02  19 2.02
 155  0.666  0.001  0.499-  47 1.99  20 2.01  65 2.01  53 2.01  74 2.02  21 2.03
 156  0.666  0.001  0.834-  48 2.00  66 2.00  19 2.00  21 2.01  75 2.02  54 2.05
 157  0.666  0.333  0.166-  22 2.01  67 2.01  46 2.01  23 2.01  49 2.01  76 2.02
 158  0.664  0.330  0.500-  68 1.98  47 1.98  24 2.01  23 2.02  77 2.03  50 2.03
 159  0.666  0.334  0.833-  69 2.01  48 2.01  22 2.01  24 2.02  78 2.02  51 2.02
 160  0.666  0.667  0.167-  25 2.00  26 2.00  70 2.01  52 2.02  79 2.02  49 2.02
 161  0.665  0.667  0.500-  80 1.96  71 1.99  26 2.02  53 2.03  27 2.03  50 2.03
 162  0.660  0.665  0.840-  72 1.95  25 1.95  51 1.98  54 2.01  27 2.08  81 2.09
 163  0.167  0.167  0.167-  58 2.00  83 2.00  37 2.01  82 2.02  55 2.02  28 2.02
 164  0.167  0.165  0.500-  59 1.94  56 1.99  38 2.02  83 2.02  29 2.02  84 2.03
 165  0.167  0.166  0.833-  60 2.00  84 2.00  57 2.01  39 2.01  82 2.01  30 2.02
 166  0.167  0.500  0.165-  86 1.94  85 1.99  40 2.02  58 2.02  31 2.02  61 2.03
 167  0.043  0.563  0.563-  32 1.53 143 1.57 114 1.57   9 1.80  62 2.20  87 2.20 198 2.31
 168  0.169  0.500  0.836-  87 1.94  85 1.98  42 2.00  60 2.02  63 2.03  33 2.04
 169  0.167  0.833  0.166-  89 2.00  61 2.00  88 2.01  43 2.01  55 2.01  34 2.02
 170  0.169  0.836  0.500-  62 1.94  56 1.98  44 2.00  89 2.02  90 2.03  35 2.04
 171  0.167  0.833  0.833-  90 2.00  63 2.00  45 2.01  88 2.01  57 2.01  36 2.03
 172  0.500  0.167  0.167-  37 2.01  92 2.01  67 2.01  64 2.01  91 2.01  46 2.02
 173  0.499  0.167  0.500-  38 1.99  68 2.00  65 2.01  92 2.01  47 2.02  93 2.02
 174  0.500  0.167  0.833-  69 2.01  39 2.01  91 2.01  93 2.01  48 2.01  66 2.02
 175  0.499  0.500  0.167-  40 1.99  95 2.00  94 2.01  67 2.01  49 2.02  70 2.02
 176  0.502  0.499  0.499-  41 1.93  50 2.00  68 2.02  95 2.02  96 2.03  71 2.03
 177  0.499  0.499  0.833-  42 1.98  96 2.00  69 2.01  51 2.02  94 2.02  72 2.03
 178  0.500  0.833  0.167-  98 2.01  43 2.01  64 2.01  70 2.01  52 2.01  97 2.02
 179  0.499  0.833  0.499-  44 1.98  71 2.00  98 2.01  53 2.02  65 2.02  99 2.03
 180  0.499  0.834  0.834-  45 2.00  66 2.01  97 2.01  72 2.01  99 2.01  54 2.06
 181  0.833  0.166  0.166-  73 2.00 100 2.00 101 2.01  76 2.01  28 2.01  46 2.02
 182  0.833  0.166  0.500-  77 1.98  29 2.00  74 2.01 102 2.02  47 2.02 101 2.02
 183  0.833  0.167  0.833-  75 2.00  78 2.01 102 2.01  30 2.01 100 2.01  48 2.02
 184  0.834  0.500  0.166- 104 1.98  31 2.00 103 2.01  79 2.02  49 2.02  76 2.02
 185  0.826  0.487  0.487-  32 1.76  77 1.91 104 1.91  50 1.93 105 2.21  80 2.21
 186  0.833  0.500  0.834- 105 1.98 103 2.01  78 2.01  33 2.02  81 2.03  51 2.03
 187  0.833  0.833  0.167- 106 2.00 107 2.01  79 2.01  34 2.01  73 2.01  52 2.02
 188  0.833  0.834  0.500-  80 1.98  74 2.01 107 2.01  35 2.02 108 2.03  53 2.03
 189  0.835  0.840  0.840-  75 1.95 106 1.95  36 1.98  54 2.01  81 2.08 108 2.08
 190  0.167  0.000  0.000-  82 2.01  55 2.01  88 2.01  57 2.01  10 2.01   1 2.02
 191  0.167  0.000  0.333-  83 2.00  89 2.01  55 2.01  11 2.01   2 2.02  56 2.02
 192  0.167  0.000  0.667-  84 2.00  90 2.00  12 2.01   3 2.01  57 2.01  56 2.02
 193  0.167  0.333  0.000-  58 2.00  60 2.01  82 2.01  13 2.01   4 2.02  85 2.02
 194  0.167  0.335  0.335-  86 2.00  59 2.00  14 2.01   5 2.02  83 2.05  58 2.05
 195  0.170  0.331  0.665-  15 1.98  59 1.99  84 2.00  87 2.03  60 2.04   6 2.04
 196  0.167  0.667  0.000-  61 2.00  63 2.00  16 2.01   7 2.01  88 2.01  85 2.02
 197  0.170  0.665  0.331-  17 1.98  86 1.99  61 2.00  62 2.03  89 2.04   8 2.04
 198  0.169  0.665  0.665-  18 1.99   9 2.01  62 2.02  87 2.02  90 2.04  63 2.04 167 2.31
 199  0.500  0.000  0.000-  91 2.01  64 2.01  10 2.01  66 2.01  97 2.01  19 2.02
 200  0.500  0.000  0.333-  11 2.01  92 2.01  98 2.01  64 2.01  20 2.02  65 2.02
 201  0.498  0.002  0.667-  93 1.99  12 1.99  65 2.01  99 2.01  66 2.02  21 2.02
 202  0.500  0.333  0.000-  13 2.01  67 2.01  69 2.01  91 2.01  22 2.02  94 2.02
 203  0.499  0.333  0.333-  14 2.00  68 2.01  95 2.01  67 2.01  92 2.01  23 2.03
 204  0.499  0.333  0.666-  15 1.99  96 2.01  93 2.01  24 2.02  68 2.02  69 2.02
 205  0.498  0.667  0.002-  70 1.99  16 1.99  94 2.01  72 2.01  97 2.02  25 2.02
 206  0.499  0.666  0.333-  17 1.99  71 2.01  70 2.01  26 2.02  95 2.02  98 2.02
 207  0.498  0.666  0.666-  27 1.98  18 1.99  96 2.02  71 2.02  72 2.04  99 2.04
 208  0.833  0.002  0.002- 100 1.99  73 1.99   1 2.01  19 2.01  75 2.02 106 2.02
 209  0.833  1.000  0.333- 101 2.00 107 2.01  73 2.01  74 2.01   2 2.01  20 2.02
 210  0.833  0.001  0.667- 108 1.98 102 2.00   3 2.01  74 2.02  21 2.03  75 2.03
 211  0.833  0.333  1.000-  76 2.00  78 2.01 100 2.01 103 2.01   4 2.01  22 2.02
 212  0.834  0.329  0.329-  76 1.98 101 1.98   5 2.00  23 2.01  77 2.04 104 2.04
 213  0.834  0.333  0.666- 105 1.99 102 2.01  78 2.02  24 2.02   6 2.03  77 2.03
 214  0.833  0.667  0.001-  81 1.98  79 2.00   7 2.01 103 2.02  25 2.03 106 2.03
 215  0.834  0.666  0.333-  80 1.99  79 2.01 107 2.02  26 2.02   8 2.03 104 2.03
 216  0.813  0.687  0.687-  81 1.85 108 1.85  27 1.85
 
  LATTYP: Found a simple cubic cell.
 ALAT       =    12.0789003372
  
  Lattice vectors:
  
 A1 = (  12.0789003372,   0.0000000000,   0.0000000000)
 A2 = (   0.0000000000,  12.0789003372,   0.0000000000)
 A3 = (   0.0000000000,   0.0000000000,  12.0789003372)


Analysis of symmetry for initial positions (statically):
=====================================================================
 Subroutine PRICEL returns:
 Original cell was already a primitive cell.
 

 Routine SETGRP: Setting up the symmetry group for a 
 simple cubic supercell.


 Subroutine GETGRP returns: Found  1 space group operations
 (whereof  1 operations were pure point group operations)
 out of a pool of 48 trial point group operations.


The static configuration has the point symmetry C_1 .


Analysis of symmetry for dynamics (positions and initial velocities):
=====================================================================
 Subroutine PRICEL returns:
 Original cell was already a primitive cell.
 

 Routine SETGRP: Setting up the symmetry group for a 
 simple cubic supercell.


 Subroutine GETGRP returns: Found  1 space group operations
 (whereof  1 operations were pure point group operations)
 out of a pool of 48 trial point group operations.


The dynamic configuration has the point symmetry C_1 .


Analysis of structural, dynamic, and magnetic symmetry:
=====================================================================
 Subroutine PRICEL returns:
 Original cell was already a primitive cell.
 

 Routine SETGRP: Setting up the symmetry group for a 
 simple cubic supercell.


 Subroutine GETGRP returns: Found  1 space group operations
 (whereof  1 operations were pure point group operations)
 out of a pool of 48 trial point group operations.


The overall configuration has the point symmetry C_1 .


 Subroutine INISYM returns: Found  1 space group operations
 (whereof  1 operations are pure point group operations),
 and found     1 'primitive' translations


----------------------------------------------------------------------------------------

                                     Primitive cell                                     

  volume of cell :    1762.3095

  direct lattice vectors                    reciprocal lattice vectors
    12.078900337  0.000000000  0.000000000     0.082788993  0.000000000  0.000000000
     0.000000000 12.078900337  0.000000000     0.000000000  0.082788993  0.000000000
     0.000000000  0.000000000 12.078900337     0.000000000  0.000000000  0.082788993

  length of vectors
    12.078900337 12.078900337 12.078900337     0.082788993  0.082788993  0.082788993

  position of ions in fractional coordinates (direct lattice)
     0.999878414  0.999950061  0.999952515
     0.000109562  0.999717034  0.333130886
     0.000120241  0.999762364  0.666605230
     0.000109727  0.333128750  0.999718579
     0.999210605  0.333732454  0.333735569
     0.001522222  0.332483348  0.666324763
     0.000119949  0.666603346  0.999765016
     0.001521274  0.666321683  0.332484970
     0.003160853  0.665039586  0.665041598
     0.333433983  0.999958922  0.999961524
     0.333417156  0.000163255  0.332902063
     0.333138258  0.000377954  0.666805272
     0.333416891  0.332900030  0.000155267
     0.333012619  0.333108949  0.333111249
     0.334122259  0.332008055  0.666875426
     0.333138414  0.666803482  0.000380640
     0.334123265  0.666872912  0.332010267
     0.333938003  0.667139980  0.667141813
     0.666732015  0.999701801  0.999703758
     0.666471153  0.999924575  0.333069345
     0.665418997  0.001367911  0.667046328
     0.666470598  0.333066302  0.000022205
     0.667068935  0.332908941  0.332919587
     0.666080278  0.332723843  0.666238856
     0.665418946  0.667042935  0.001370630
     0.666080407  0.666227884  0.332727192
     0.662049339  0.667944740  0.667947208
     0.999791418  0.166512599  0.166515249
     0.999345460  0.165529035  0.499735811
     0.000142185  0.166470330  0.833475506
     0.999343896  0.499734948  0.165530680
     0.971570599  0.489250349  0.489251631
     0.000623455  0.499334909  0.831863793
     0.000140947  0.833473876  0.166471754
     0.000621910  0.831861709  0.499337760
     0.998808799  0.833382273  0.833384394
     0.333420524  0.166481376  0.166479027
     0.333802037  0.165715803  0.499805345
     0.333615195  0.166260110  0.833604994
     0.333803349  0.499801667  0.165715349
     0.341946406  0.499553899  0.499555907
     0.334596873  0.499503299  0.835519188
     0.333616469  0.833605481  0.166264448
     0.334598596  0.835519362  0.499503510
     0.333227722  0.833718320  0.833720519
     0.666598987  0.166343625  0.166397040
     0.666053559  0.165943137  0.499507112
     0.666429498  0.166749138  0.833632439
     0.666053668  0.499538344  0.165967968
     0.666783770  0.498444831  0.498443211
     0.665499012  0.501073278  0.834581905
     0.666429560  0.833608406  0.166722809
     0.665499308  0.834557920  0.501104939
     0.668889186  0.831320157  0.831322289
     0.166621773  0.000044146  0.166305695
     0.166708956  0.000094700  0.499665302
     0.166543533  0.999884909  0.833662816
     0.166434016  0.332512434  0.165846357
     0.165835195  0.325231855  0.500624698
     0.166939681  0.331999782  0.834047170
     0.167132736  0.667547622  0.165357727
     0.171519741  0.676078537  0.498835051
     0.166645505  0.667235271  0.834130796
     0.500043187  0.000017218  0.166414884
     0.499965298  0.000366514  0.499921839
     0.500288962  0.999715186  0.833449365
     0.499925764  0.332913887  0.166535214
     0.500473084  0.331963601  0.499528861
     0.500083454  0.332956814  0.833667509
     0.499711440  0.666829789  0.166563369
     0.500605510  0.667452121  0.499611363
     0.498437605  0.667141363  0.834969765
     0.833370511  0.000163992  0.166644320
     0.833181251  0.999744691  0.499805254
     0.833192643  0.001419357  0.834673534
     0.833304342  0.332183841  0.165713478
     0.832204061  0.329712446  0.498332772
     0.833499501  0.333081195  0.833518340
     0.833361802  0.666826507  0.166757041
     0.827531259  0.670059362  0.498063391
     0.833150733  0.667698166  0.837322239
     0.166621630  0.166303326  0.000046241
     0.166430930  0.165846610  0.332514670
     0.167132835  0.165355831  0.667549538
     0.166708961  0.499663116  0.000096427
     0.165834892  0.500622616  0.325234115
     0.171519732  0.498832688  0.676080884
     0.166543585  0.833660650  0.999887091
     0.166942639  0.834047564  0.332002267
     0.166645520  0.834128399  0.667237899
     0.500044319  0.166412820  0.000016841
     0.499960284  0.166513937  0.332915281
     0.499711156  0.166560034  0.666832410
     0.499965270  0.499920135  0.000367492
     0.500474560  0.499528790  0.331965051
     0.500603784  0.499610820  0.667453316
     0.500287935  0.833447430  0.999718478
     0.500050644  0.833645757  0.332959130
     0.498436883  0.834967812  0.667142221
     0.833369450  0.166642499  0.000163415
     0.833274135  0.165690227  0.332185106
     0.833362228  0.166753972  0.666829006
     0.833181228  0.499803372  0.999745489
     0.832202617  0.498333306  0.329713366
     0.827532671  0.498063610  0.670060250
     0.833193581  0.834671783  0.001422326
     0.833528315  0.833494497  0.333083412
     0.833151600  0.837320233  0.667699100
     0.000352613  0.166687824  0.000113766
     0.000702221  0.166385044  0.333353241
     0.000539642  0.166610208  0.666247248
     0.000055340  0.499814721  0.999551589
     0.001950023  0.499700711  0.333525557
     0.015036370  0.492130944  0.668212615
     0.000885351  0.833217942  0.000825199
     0.000589260  0.833848678  0.332316740
     0.000666575  0.832769257  0.665986456
     0.333258365  0.166605547  0.000178908
     0.332772276  0.167086013  0.333370136
     0.333390753  0.166451165  0.666340029
     0.333653782  0.499562809  0.000576190
     0.331333262  0.499639125  0.335250005
     0.332803965  0.499476500  0.664348932
     0.332985232  0.833473330  0.000073165
     0.333454826  0.833372312  0.333068504
     0.333014054  0.833454467  0.666339774
     0.666413526  0.166841563  0.999997977
     0.666157358  0.166155104  0.332780423
     0.666338910  0.166854674  0.666745139
     0.666266821  0.499135466  0.000907878
     0.664207967  0.499783299  0.330207926
     0.665093907  0.499675851  0.666844653
     0.666225427  0.833740290  0.000978689
     0.666460571  0.833208410  0.333511557
     0.659821725  0.839698218  0.664993990
     0.000352433  0.000112968  0.166689838
     0.000055441  0.999550642  0.499817203
     0.000885571  0.000822840  0.833219881
     0.000709675  0.333351166  0.166388983
     0.001949070  0.333523905  0.499702693
     0.000580656  0.332314643  0.833852692
     0.000540415  0.666245116  0.166612016
     0.015037646  0.668210484  0.492133059
     0.000666791  0.665984446  0.832771383
     0.333258503  0.000181154  0.166607343
     0.333653713  0.000577372  0.499565397
     0.332985091  0.000070026  0.833475175
     0.332765349  0.333368722  0.167085756
     0.331334358  0.335248488  0.499640693
     0.333462684  0.333066148  0.833372748
     0.333389952  0.666337527  0.166453501
     0.332803107  0.664347466  0.499478491
     0.333013833  0.666338394  0.833456409
     0.666413611  0.999965752  0.166845188
     0.666266957  0.000883648  0.499138280
     0.666225424  0.000983493  0.833744699
     0.666156568  0.332772915  0.166203269
     0.664208129  0.330200533  0.499788672
     0.666461286  0.333509858  0.833246655
     0.666338824  0.666745907  0.166853498
     0.665093904  0.666837591  0.499683273
     0.659821580  0.664984255  0.839702739
     0.166759019  0.166920010  0.166921271
     0.166875284  0.164788277  0.499582648
     0.167068525  0.166430420  0.833465907
     0.166875353  0.499580204  0.164790128
     0.043336907  0.563366346  0.563367642
     0.169282437  0.499584617  0.836451272
     0.167068698  0.833464046  0.166433344
     0.169282610  0.836449226  0.499586436
     0.166614602  0.833179670  0.833181910
     0.499597450  0.166639390  0.166642994
     0.498885909  0.166646968  0.499612316
     0.499726634  0.166892880  0.833476850
     0.498883761  0.499609796  0.166648933
     0.501525798  0.499465952  0.499470252
     0.498609182  0.499067722  0.833416347
     0.499725018  0.833474702  0.166893270
     0.498607127  0.833414132  0.499071722
     0.498724174  0.833700855  0.833703060
     0.833463707  0.166016862  0.166020808
     0.833498899  0.165931758  0.499656272
     0.833407996  0.167081858  0.833383822
     0.833500683  0.499653665  0.165933660
     0.825583005  0.487075822  0.487079926
     0.833385828  0.499853288  0.833510359
     0.833409545  0.833381732  0.167081792
     0.833387845  0.833508265  0.499857233
     0.835078372  0.839735992  0.839737980
     0.166795657  0.000103964  0.000106222
     0.166963296  0.000110764  0.332669457
     0.166837809  0.000034008  0.666851091
     0.166963283  0.332667194  0.000111154
     0.166659771  0.335317839  0.335318866
     0.170192023  0.331037058  0.665434871
     0.166837787  0.666848942  0.000036393
     0.170192616  0.665433623  0.331039145
     0.169286140  0.665476010  0.665478157
     0.499726110  0.000160354  0.000161371
     0.499647434  0.000140455  0.333067859
     0.498106388  0.001754595  0.666542524
     0.499648114  0.333065827  0.000163165
     0.498986418  0.333198810  0.333205739
     0.499251861  0.333143257  0.666361519
     0.498106361  0.666540324  0.001754979
     0.499245853  0.666355788  0.333145309
     0.498277380  0.666478852  0.666481826
     0.833482080  0.001617895  0.001618768
     0.833418472  0.999867585  0.333122745
     0.833344924  0.001101958  0.666720975
     0.833417638  0.333120792  0.999892718
     0.833625795  0.329421594  0.329429200
     0.833600872  0.333414664  0.666365694
     0.833344899  0.666718780  0.001102048
     0.833606358  0.666359754  0.333416357
     0.813115467  0.686794053  0.686797108

  ion indices of the primitive-cell ions
   primitive index   ion index
                 1           1
                 2           2
                 3           3
                 4           4
                 5           5
                 6           6
                 7           7
                 8           8
                 9           9
                10          10
                11          11
                12          12
                13          13
                14          14
                15          15
                16          16
                17          17
                18          18
                19          19
                20          20
                21          21
                22          22
                23          23
                24          24
                25          25
                26          26
                27          27
                28          28
                29          29
                30          30
                31          31
                32          32
                33          33
                34          34
                35          35
                36          36
                37          37
                38          38
                39          39
                40          40
                41          41
                42          42
                43          43
                44          44
                45          45
                46          46
                47          47
                48          48
                49          49
                50          50
                51          51
                52          52
                53          53
                54          54
                55          55
                56          56
                57          57
                58          58
                59          59
                60          60
                61          61
                62          62
                63          63
                64          64
                65          65
                66          66
                67          67
                68          68
                69          69
                70          70
                71          71
                72          72
                73          73
                74          74
                75          75
                76          76
                77          77
                78          78
                79          79
                80          80
                81          81
                82          82
                83          83
                84          84
                85          85
                86          86
                87          87
                88          88
                89          89
                90          90
                91          91
                92          92
                93          93
                94          94
                95          95
                96          96
                97          97
                98          98
                99          99
               100         100
               101         101
               102         102
               103         103
               104         104
               105         105
               106         106
               107         107
               108         108
               109         109
               110         110
               111         111
               112         112
               113         113
               114         114
               115         115
               116         116
               117         117
               118         118
               119         119
               120         120
               121         121
               122         122
               123         123
               124         124
               125         125
               126         126
               127         127
               128         128
               129         129
               130         130
               131         131
               132         132
               133         133
               134         134
               135         135
               136         136
               137         137
               138         138
               139         139
               140         140
               141         141
               142         142
               143         143
               144         144
               145         145
               146         146
               147         147
               148         148
               149         149
               150         150
               151         151
               152         152
               153         153
               154         154
               155         155
               156         156
               157         157
               158         158
               159         159
               160         160
               161         161
               162         162
               163         163
               164         164
               165         165
               166         166
               167         167
               168         168
               169         169
               170         170
               171         171
               172         172
               173         173
               174         174
               175         175
               176         176
               177         177
               178         178
               179         179
               180         180
               181         181
               182         182
               183         183
               184         184
               185         185
               186         186
               187         187
               188         188
               189         189
               190         190
               191         191
               192         192
               193         193
               194         194
               195         195
               196         196
               197         197
               198         198
               199         199
               200         200
               201         201
               202         202
               203         203
               204         204
               205         205
               206         206
               207         207
               208         208
               209         209
               210         210
               211         211
               212         212
               213         213
               214         214
               215         215
               216         216

----------------------------------------------------------------------------------------

 
 
 KPOINTS: Gamma-point only                        

Automatic generation of k-mesh.
 Grid dimensions read from file:
 generate k-points for:    1    1    1

 Generating k-lattice:

  Cartesian coordinates                     Fractional coordinates (reciprocal lattice)
     0.082788993  0.000000000  0.000000000     1.000000000  0.000000000  0.000000000
     0.000000000  0.082788993  0.000000000     0.000000000  1.000000000  0.000000000
     0.000000000  0.000000000  0.082788993     0.000000000  0.000000000  1.000000000

  Length of vectors
     0.082788993  0.082788993  0.082788993

  Shift w.r.t. Gamma in fractional coordinates (k-lattice)
     0.000000000  0.000000000  0.000000000

 
 Subroutine IBZKPT returns following result:
 ===========================================
 
 Found      1 irreducible k-points:
 
 Following reciprocal coordinates:
            Coordinates               Weight
  0.000000  0.000000  0.000000      1.000000
 
 Following cartesian coordinates:
            Coordinates               Weight
  0.000000  0.000000  0.000000      1.000000
 


--------------------------------------------------------------------------------------------------------




 Dimension of arrays:
   k-points           NKPTS =      1   k-points in BZ     NKDIM =      1   number of bands    NBANDS=    757
   number of dos      NEDOS =    301   number of ions     NIONS =    216
   non local maximal  LDIM  =      4   non local SUM 2l+1 LMDIM =      8
   total plane-waves  NPLWV = 512000
   max r-space proj   IRMAX =      1   max aug-charges    IRDMAX=   3893
   dimension x,y,z NGX =    80 NGY =   80 NGZ =   80
   dimension x,y,z NGXF=   160 NGYF=  160 NGZF=  160
   support grid    NGXF=   160 NGYF=  160 NGZF=  160
   ions per type =             108 108
   NGX,Y,Z   is equivalent  to a cutoff of  11.01, 11.01, 11.01 a.u.
   NGXF,Y,Z  is equivalent  to a cutoff of  22.02, 22.02, 22.02 a.u.

 SYSTEM =  Si                                      
 POSCAR =  Li   F                                  

 Startparameter for this run:
   NWRITE =      2    write-flag & timer
   PREC   = accura    normal or accurate (medium, high low for compatibility)
   ISTART =      1    job   : 0-new  1-cont  2-samecut
   ICHARG =      2    charge: 1-file 2-atom 10-const
   ISPIN  =      2    spin polarized calculation?
   LNONCOLLINEAR =      F non collinear calculations
   LSORBIT =      F    spin-orbit coupling
   INIWAV =      1    electr: 0-lowe 1-rand  2-diag
   LASPH  =      F    aspherical Exc in radial PAW
 Electronic Relaxation 1
   ENCUT  =  400.0 eV  29.40 Ry    5.42 a.u.  19.70 19.70 19.70*2*pi/ulx,y,z
   ENINI  =  400.0     initial cutoff
   ENAUG  =  628.9 eV  augmentation charge cutoff
   NELM   =     20;   NELMIN=  2; NELMDL=  0     # of ELM steps 
   EDIFF  = 0.1E-09   stopping-criterion for ELM
   LREAL  =      F    real-space projection
   NLSPLINE    = F    spline interpolate recip. space projectors
   LCOMPAT=      F    compatible to vasp.4.4
   GGA_COMPAT  = T    GGA compatible to vasp.4.4-vasp.4.6
   LMAXPAW     = -100 max onsite density
   LMAXMIX     =    2 max onsite mixed and CHGCAR
   VOSKOWN=      0    Vosko Wilk Nusair interpolation
   ROPT   =    0.00000   0.00000
 Ionic relaxation
   EDIFFG = -.1E-01   stopping-criterion for IOM
   NSW    =    500    number of steps for IOM
   NBLOCK =      1;   KBLOCK =    500    inner block; outer block 
   IBRION =      3    ionic relax: 0-MD 1-quasi-New 2-CG
   NFREE  =      0    steps in history (QN), initial steepest desc. (CG)
   ISIF   =      0    stress and relaxation
   IWAVPR =     11    prediction:  0-non 1-charg 2-wave 3-comb
   ISYM   =      2    0-nonsym 1-usesym 2-fastsym
   LCORR  =      T    Harris-Foulkes like correction to forces

   POTIM  = 0.0000    time-step for ionic-motion
   TEIN   =    0.0    initial temperature
   TEBEG  =    0.0;   TEEND  =   0.0 temperature during run
   SMASS  =  -3.00    Nose mass-parameter (am)
   estimated Nose-frequenzy (Omega)   =  0.10E-29 period in steps = 0.00E+00 mass=  -0.333E-26a.u.
   SCALEE = 1.0000    scale energy and forces
   NPACO  =    256;   APACO  = 10.0  distance and # of slots for P.C.
   PSTRESS=    0.0 pullay stress

  Mass of Ions in am
   POMASS =  19.00  7.01
  Ionic Valenz
   ZVAL   =   7.00  3.00
  Atomic Wigner-Seitz radii
   RWIGS  =  -1.00 -1.00
  virtual crystal weights 
   VCA    =   1.00  1.00
   NELECT =    1080.0000    total number of electrons
   NUPDOWN=      -1.0000    fix difference up-down

 DOS related values:
   EMIN   =  10.00;   EMAX   =-10.00  energy-range for DOS
   EFERMI =   0.00;   METHOD = LEGACY      
   ISMEAR =     0;   SIGMA  =   0.01  broadening in eV -4-tet -1-fermi 0-gaus

 Electronic relaxation 2 (details)
   IALGO  =     38    algorithm
   LDIAG  =      T    sub-space diagonalisation (order eigenvalues)
   LSUBROT=      F    optimize rotation matrix (better conditioning)
   TURBO    =      0    0=normal 1=particle mesh
   IRESTART =      0    0=no restart 2=restart with 2 vectors
   NREBOOT  =      0    no. of reboots
   NMIN     =      0    reboot dimension
   EREF     =   0.00    reference energy to select bands
   IMIX   =      4    mixing-type and parameters
     AMIX     =   0.40;   BMIX     =  1.00
     AMIX_MAG =   1.60;   BMIX_MAG =  1.00
     AMIN     =   0.10
     WC   =   100.;   INIMIX=   1;  MIXPRE=   1;  MAXMIX= -45

 Intra band minimization:
   WEIMIN = 0.0010     energy-eigenvalue tresh-hold
   EBREAK =  0.33E-13  absolut break condition
   DEPER  =   0.30     relativ break condition  

   TIME   =   0.40     timestep for ELM

  volume/ion in A,a.u.               =       8.16        55.06
  Fermi-wavevector in a.u.,A,eV,Ry     =   1.390557  2.627771 26.308875  1.933648
  Thomas-Fermi vector in A             =   2.514480
 
 Write flags
   LWAVE        =      T    write WAVECAR
   LDOWNSAMPLE  =      F    k-point downsampling of WAVECAR
   LCHARG       =      T    write CHGCAR
   LVTOT        =      F    write LOCPOT, total local potential
   LVHAR        =      F    write LOCPOT, Hartree potential only
   LELF         =      F    write electronic localiz. function (ELF)
   LORBIT       =      0    0 simple, 1 ext, 2 COOP (PROOUT), +10 PAW based schemes


 Dipole corrections
   LMONO  =      F    monopole corrections only (constant potential shift)
   LDIPOL =      F    correct potential (dipole corrections)
   IDIPOL =      0    1-x, 2-y, 3-z, 4-all directions 
   EPSILON=  1.0000000 bulk dielectric constant

 Exchange correlation treatment:
   GGA     =    --    GGA type
   LEXCH   =     8    internal setting for exchange type
   LIBXC   =     F    Libxc                    
   VOSKOWN =     0    Vosko Wilk Nusair interpolation
   LHFCALC =     F    Hartree Fock is set to
   LHFONE  =     F    Hartree Fock one center treatment
   AEXX    =    0.0000 exact exchange contribution

 Linear response parameters
   LEPSILON=     F    determine dielectric tensor
   LRPA    =     F    only Hartree local field effects (RPA)
   LNABLA  =     F    use nabla operator in PAW spheres
   LVEL    =     F    velocity operator in full k-point grid
   CSHIFT  =0.1000    complex shift for real part using Kramers Kronig
   OMEGAMAX=  -1.0    maximum frequency
   DEG_THRESHOLD= 0.2000000E-02 threshold for treating states as degnerate
   RTIME   =   -0.100 relaxation time in fs
  (WPLASMAI=    0.000 imaginary part of plasma frequency in eV, 0.658/RTIME)
   DFIELD  = 0.0000000 0.0000000 0.0000000 field for delta impulse in time
 
  Optional k-point grid parameters
   LKPOINTS_OPT  =     F    use optional k-point grid
   KPOINTS_OPT_MODE=     1    mode for optional k-point grid
 
 Orbital magnetization related:
   ORBITALMAG=     F  switch on orbital magnetization
   LCHIMAG   =     F  perturbation theory with respect to B field
   DQ        =  0.001000  dq finite difference perturbation B field
   LLRAUG    =     F  two centre corrections for induced B field
   LBONE     =     F  B-component reconstruction in AE one-centre
   LVGVCALC  =     T  calculate vGv susceptibility
   LVGVAPPL  =     F  apply vGv susceptibility instead of pGv for G=0

 Random number generation:
   RANDOM_GENERATOR = DEFAULT
   PCG_SEED         = not used


--------------------------------------------------------------------------------------------------------


 quickmin algorithm: (dynamic with friction)
 charge density and potential will be updated during run
 spin polarized calculation
 Variant of blocked Davidson
 Davidson routine will perform the subspace rotation
 perform sub-space diagonalisation
    after iterative eigenvector-optimisation
 modified Broyden-mixing scheme, WC =      100.0
 initial mixing is a Kerker type mixing with AMIX =  0.4000 and BMIX =      1.0000
 Hartree-type preconditioning will be used
 using additional bands           217
 reciprocal scheme for non local part
 calculate Harris-corrections to forces 
   (improved forces if not selfconsistent)
 use gradient corrections 
 use of overlap-Matrix (Vanderbilt PP)
 Gauss-broadening in eV      SIGMA  =   0.01


--------------------------------------------------------------------------------------------------------


  energy-cutoff  :      400.00
  volume of cell :     1762.31
      direct lattice vectors                 reciprocal lattice vectors
    12.078900337  0.000000000  0.000000000     0.082788993  0.000000000  0.000000000
     0.000000000 12.078900337  0.000000000     0.000000000  0.082788993  0.000000000
     0.000000000  0.000000000 12.078900337     0.000000000  0.000000000  0.082788993

  length of vectors
    12.078900337 12.078900337 12.078900337     0.082788993  0.082788993  0.082788993


 
 old parameters found on file WAVECAR:
  energy-cutoff  :      400.00
  volume of cell :     1762.31
      direct lattice vectors                 reciprocal lattice vectors
    12.078900337  0.000000000  0.000000000     0.082788993  0.000000000  0.000000000
     0.000000000 12.078900337  0.000000000     0.000000000  0.082788993  0.000000000
     0.000000000  0.000000000 12.078900337     0.000000000  0.000000000  0.082788993

  length of vectors

 
 k-points in units of 2pi/SCALE and weight: Gamma-point only                        
   0.00000000  0.00000000  0.00000000       1.000
 
 k-points in reciprocal lattice and weights: Gamma-point only                        
   0.00000000  0.00000000  0.00000000       1.000
 
 position of ions in fractional coordinates (direct lattice) 
   0.99987841  0.99995006  0.99995252
   0.00010956  0.99971703  0.33313089
   0.00012024  0.99976236  0.66660523
   0.00010973  0.33312875  0.99971858
   0.99921060  0.33373245  0.33373557
   0.00152222  0.33248335  0.66632476
   0.00011995  0.66660335  0.99976502
   0.00152127  0.66632168  0.33248497
   0.00316085  0.66503959  0.66504160
   0.33343398  0.99995892  0.99996152
   0.33341716  0.00016325  0.33290206
   0.33313826  0.00037795  0.66680527
   0.33341689  0.33290003  0.00015527
   0.33301262  0.33310895  0.33311125
   0.33412226  0.33200806  0.66687543
   0.33313841  0.66680348  0.00038064
   0.33412327  0.66687291  0.33201027
   0.33393800  0.66713998  0.66714181
   0.66673202  0.99970180  0.99970376
   0.66647115  0.99992458  0.33306935
   0.66541900  0.00136791  0.66704633
   0.66647060  0.33306630  0.00002220
   0.66706894  0.33290894  0.33291959
   0.66608028  0.33272384  0.66623886
   0.66541895  0.66704294  0.00137063
   0.66608041  0.66622788  0.33272719
   0.66204934  0.66794474  0.66794721
   0.99979142  0.16651260  0.16651525
   0.99934546  0.16552904  0.49973581
   0.00014219  0.16647033  0.83347551
   0.99934390  0.49973495  0.16553068
   0.97157060  0.48925035  0.48925163
   0.00062345  0.49933491  0.83186379
   0.00014095  0.83347388  0.16647175
   0.00062191  0.83186171  0.49933776
   0.99880880  0.83338227  0.83338439
   0.33342052  0.16648138  0.16647903
   0.33380204  0.16571580  0.49980535
   0.33361519  0.16626011  0.83360499
   0.33380335  0.49980167  0.16571535
   0.34194641  0.49955390  0.49955591
   0.33459687  0.49950330  0.83551919
   0.33361647  0.83360548  0.16626445
   0.33459860  0.83551936  0.49950351
   0.33322772  0.83371832  0.83372052
   0.66659899  0.16634363  0.16639704
   0.66605356  0.16594314  0.49950711
   0.66642950  0.16674914  0.83363244
   0.66605367  0.49953834  0.16596797
   0.66678377  0.49844483  0.49844321
   0.66549901  0.50107328  0.83458190
   0.66642956  0.83360841  0.16672281
   0.66549931  0.83455792  0.50110494
   0.66888919  0.83132016  0.83132229
   0.16662177  0.00004415  0.16630569
   0.16670896  0.00009470  0.49966530
   0.16654353  0.99988491  0.83366282
   0.16643402  0.33251243  0.16584636
   0.16583519  0.32523185  0.50062470
   0.16693968  0.33199978  0.83404717
   0.16713274  0.66754762  0.16535773
   0.17151974  0.67607854  0.49883505
   0.16664550  0.66723527  0.83413080
   0.50004319  0.00001722  0.16641488
   0.49996530  0.00036651  0.49992184
   0.50028896  0.99971519  0.83344937
   0.49992576  0.33291389  0.16653521
   0.50047308  0.33196360  0.49952886
   0.50008345  0.33295681  0.83366751
   0.49971144  0.66682979  0.16656337
   0.50060551  0.66745212  0.49961136
   0.49843760  0.66714136  0.83496977
   0.83337051  0.00016399  0.16664432
   0.83318125  0.99974469  0.49980525
   0.83319264  0.00141936  0.83467353
   0.83330434  0.33218384  0.16571348
   0.83220406  0.32971245  0.49833277
   0.83349950  0.33308119  0.83351834
   0.83336180  0.66682651  0.16675704
   0.82753126  0.67005936  0.49806339
   0.83315073  0.66769817  0.83732224
   0.16662163  0.16630333  0.00004624
   0.16643093  0.16584661  0.33251467
   0.16713284  0.16535583  0.66754954
   0.16670896  0.49966312  0.00009643
   0.16583489  0.50062262  0.32523412
   0.17151973  0.49883269  0.67608088
   0.16654359  0.83366065  0.99988709
   0.16694264  0.83404756  0.33200227
   0.16664552  0.83412840  0.66723790
   0.50004432  0.16641282  0.00001684
   0.49996028  0.16651394  0.33291528
   0.49971116  0.16656003  0.66683241
   0.49996527  0.49992014  0.00036749
   0.50047456  0.49952879  0.33196505
   0.50060378  0.49961082  0.66745332
   0.50028794  0.83344743  0.99971848
   0.50005064  0.83364576  0.33295913
   0.49843688  0.83496781  0.66714222
   0.83336945  0.16664250  0.00016341
   0.83327414  0.16569023  0.33218511
   0.83336223  0.16675397  0.66682901
   0.83318123  0.49980337  0.99974549
   0.83220262  0.49833331  0.32971337
   0.82753267  0.49806361  0.67006025
   0.83319358  0.83467178  0.00142233
   0.83352831  0.83349450  0.33308341
   0.83315160  0.83732023  0.66769910
   0.00035261  0.16668782  0.00011377
   0.00070222  0.16638504  0.33335324
   0.00053964  0.16661021  0.66624725
   0.00005534  0.49981472  0.99955159
   0.00195002  0.49970071  0.33352556
   0.01503637  0.49213094  0.66821261
   0.00088535  0.83321794  0.00082520
   0.00058926  0.83384868  0.33231674
   0.00066658  0.83276926  0.66598646
   0.33325836  0.16660555  0.00017891
   0.33277228  0.16708601  0.33337014
   0.33339075  0.16645117  0.66634003
   0.33365378  0.49956281  0.00057619
   0.33133326  0.49963912  0.33525001
   0.33280396  0.49947650  0.66434893
   0.33298523  0.83347333  0.00007316
   0.33345483  0.83337231  0.33306850
   0.33301405  0.83345447  0.66633977
   0.66641353  0.16684156  0.99999798
   0.66615736  0.16615510  0.33278042
   0.66633891  0.16685467  0.66674514
   0.66626682  0.49913547  0.00090788
   0.66420797  0.49978330  0.33020793
   0.66509391  0.49967585  0.66684465
   0.66622543  0.83374029  0.00097869
   0.66646057  0.83320841  0.33351156
   0.65982172  0.83969822  0.66499399
   0.00035243  0.00011297  0.16668984
   0.00005544  0.99955064  0.49981720
   0.00088557  0.00082284  0.83321988
   0.00070968  0.33335117  0.16638898
   0.00194907  0.33352390  0.49970269
   0.00058066  0.33231464  0.83385269
   0.00054042  0.66624512  0.16661202
   0.01503765  0.66821048  0.49213306
   0.00066679  0.66598445  0.83277138
   0.33325850  0.00018115  0.16660734
   0.33365371  0.00057737  0.49956540
   0.33298509  0.00007003  0.83347517
   0.33276535  0.33336872  0.16708576
   0.33133436  0.33524849  0.49964069
   0.33346268  0.33306615  0.83337275
   0.33338995  0.66633753  0.16645350
   0.33280311  0.66434747  0.49947849
   0.33301383  0.66633839  0.83345641
   0.66641361  0.99996575  0.16684519
   0.66626696  0.00088365  0.49913828
   0.66622542  0.00098349  0.83374470
   0.66615657  0.33277292  0.16620327
   0.66420813  0.33020053  0.49978867
   0.66646129  0.33350986  0.83324665
   0.66633882  0.66674591  0.16685350
   0.66509390  0.66683759  0.49968327
   0.65982158  0.66498425  0.83970274
   0.16675902  0.16692001  0.16692127
   0.16687528  0.16478828  0.49958265
   0.16706852  0.16643042  0.83346591
   0.16687535  0.49958020  0.16479013
   0.04333691  0.56336635  0.56336764
   0.16928244  0.49958462  0.83645127
   0.16706870  0.83346405  0.16643334
   0.16928261  0.83644923  0.49958644
   0.16661460  0.83317967  0.83318191
   0.49959745  0.16663939  0.16664299
   0.49888591  0.16664697  0.49961232
   0.49972663  0.16689288  0.83347685
   0.49888376  0.49960980  0.16664893
   0.50152580  0.49946595  0.49947025
   0.49860918  0.49906772  0.83341635
   0.49972502  0.83347470  0.16689327
   0.49860713  0.83341413  0.49907172
   0.49872417  0.83370086  0.83370306
   0.83346371  0.16601686  0.16602081
   0.83349890  0.16593176  0.49965627
   0.83340800  0.16708186  0.83338382
   0.83350068  0.49965367  0.16593366
   0.82558301  0.48707582  0.48707993
   0.83338583  0.49985329  0.83351036
   0.83340954  0.83338173  0.16708179
   0.83338784  0.83350826  0.49985723
   0.83507837  0.83973599  0.83973798
   0.16679566  0.00010396  0.00010622
   0.16696330  0.00011076  0.33266946
   0.16683781  0.00003401  0.66685109
   0.16696328  0.33266719  0.00011115
   0.16665977  0.33531784  0.33531887
   0.17019202  0.33103706  0.66543487
   0.16683779  0.66684894  0.00003639
   0.17019262  0.66543362  0.33103914
   0.16928614  0.66547601  0.66547816
   0.49972611  0.00016035  0.00016137
   0.49964743  0.00014045  0.33306786
   0.49810639  0.00175459  0.66654252
   0.49964811  0.33306583  0.00016316
   0.49898642  0.33319881  0.33320574
   0.49925186  0.33314326  0.66636152
   0.49810636  0.66654032  0.00175498
   0.49924585  0.66635579  0.33314531
   0.49827738  0.66647885  0.66648183
   0.83348208  0.00161790  0.00161877
   0.83341847  0.99986759  0.33312274
   0.83334492  0.00110196  0.66672097
   0.83341764  0.33312079  0.99989272
   0.83362580  0.32942159  0.32942920
   0.83360087  0.33341466  0.66636569
   0.83334490  0.66671878  0.00110205
   0.83360636  0.66635975  0.33341636
   0.81311547  0.68679405  0.68679711
 
 position of ions in cartesian coordinates  (Angst):
  12.07743171 12.07829713 12.07832677
   0.00132339 12.07548242  4.02385478
   0.00145237 12.07602995  8.05185814
   0.00132538  4.02382897 12.07550108
  12.06936531  4.03112105  4.03115868
   0.01838677  4.01603322  8.04847040
   0.00144885  8.05183538 12.07606199
   0.01837532  8.04843321  4.01605282
   0.03817963  8.03294687  8.03297118
   4.02751585 12.07840416 12.07843559
   4.02731260  0.00197194  4.02109084
   4.02394382  0.00456527  8.05427443
   4.02730940  4.02106628  0.00187546
   4.02242624  4.02358979  4.02361758
   4.03582946  4.01029221  8.05512181
   4.02394570  8.05425281  0.00459771
   4.03584162  8.05509144  4.01031892
   4.03360386  8.05831733  8.05833947
   8.05338956 12.07529842 12.07532206
   8.05023863 12.07798929  4.02311142
   8.03752974  0.01652286  8.05718612
   8.05023193  4.02307466  0.00026821
   8.05745919  4.02117392  4.02130252
   8.04551730  4.01893814  8.04743275
   8.03752914  8.05714514  0.01655571
   8.04551885  8.04730021  4.01897859
   7.99682798  8.06803794  8.06806776
  12.07638089  2.01128909  2.01132110
  12.07099421  1.99940872  6.03625905
   0.00171744  2.01077852 10.06746756
  12.07097533  6.03624863  1.99942858
  11.73550443  5.90960620  5.90962170
   0.00753065  6.03141660 10.04799985
   0.00170248 10.06744788  2.01079572
   0.00751199 10.04797468  6.03145104
  12.06451194 10.06634142 10.06636703
   4.02735328  2.01091194  2.01088358
   4.03196154  2.00166467  6.03709895
   4.02970469  2.00823930 10.06903165
   4.03197738  6.03705452  2.00165918
   4.13033655  6.03406176  6.03408602
   4.04156229  6.03345056 10.09215300
   4.02972008 10.06903753  2.00829170
   4.04158309 10.09215511  6.03345312
   4.02502444 10.07040049 10.07042706
   8.05178273  2.00924807  2.00989327
   8.04519456  2.00441062  6.03349662
   8.04973549  2.01414622 10.06936315
   8.04519588  6.03387388  2.00471054
   8.05401470  6.02066544  6.02064587
   8.03849624  6.05241418 10.08083165
   8.04973623 10.06907286  2.01382819
   8.03849982 10.08054194  6.05279662
   8.07944581 10.04143332 10.04145908
   2.01260779  0.00053323  2.00878991
   2.01366087  0.00114387  6.03540739
   2.01166274 12.07751017 10.06973007
   2.01033989  4.01638456  2.00324162
   2.00310679  3.92844316  6.04699583
   2.01644777  4.01019227 10.07437264
   2.01877966  8.06324119  1.99733950
   2.07176986  8.16628526  6.02537886
   2.01289445  8.05946834 10.07538275
   6.03997181  0.00020797  2.01010880
   6.03903101  0.00442708  6.03850607
   6.04294051 12.07546010 10.06715182
   6.03855348  4.02123367  2.01156225
   6.04516451  4.00975526  6.03375932
   6.04045820  4.02175218 10.06978676
   6.03596468  8.05457056  2.01190234
   6.04676407  8.06208765  6.03475586
   6.02057815  8.05833403 10.08551658
  10.06619934  0.00198085  2.01288014
  10.06391330 12.07581649  6.03709785
  10.06405090  0.01714427 10.08193843
  10.06540009  4.01241550  2.00163658
  10.05210991  3.98256377  6.01931189
  10.06775740  4.02325455 10.06798496
  10.06609415  8.05453092  2.01424167
   9.99566761  8.09358025  6.01605807
  10.06354468  8.06505960 10.11393188
   2.01260606  2.00876130  0.00055854
   2.01030262  2.00324468  4.01641156
   2.01878086  1.99731660  8.06326434
   2.01366093  6.03538098  0.00116473
   2.00310313  6.04697069  3.92847046
   2.07176974  6.02535032  8.16631361
   2.01166337 10.06970391 12.07753652
   2.01648349 10.07437740  4.01022230
   2.01289462 10.07535380  8.05950008
   6.03998550  2.01008386  0.00020342
   6.03897044  2.01130525  4.02125051
   6.03596125  2.01186205  8.05460222
   6.03903067  6.03848549  0.00443890
   6.04518233  6.03375847  4.00977276
   6.04674321  6.03474930  8.06210209
   6.04292811 10.06712845 12.07549986
   6.04006189 10.06952401  4.02178014
   6.02056943 10.08549299  8.05834439
  10.06618653  2.01285814  0.00197387
  10.06503523  2.00135574  4.01243079
  10.06609930  2.01420461  8.05456111
  10.06391302  6.03707512 12.07582613
  10.05209248  6.01931833  3.98257489
   9.99568466  6.01606071  8.09359098
  10.06406222 10.08191729  0.01718014
  10.06810544 10.06769696  4.02328133
  10.06355514 10.11390765  8.06507088
   0.00425918  2.01340562  0.00137417
   0.00848206  2.00974836  4.02654058
   0.00651828  2.01246810  8.04753411
   0.00066845  6.03721221 12.07348402
   0.02355413  6.03583509  4.02862196
   0.18162281  5.94440062  8.07127358
   0.01069407 10.06435648  0.00996750
   0.00711762 10.07197508  4.01402078
   0.00805150 10.05893686  8.04438402
   4.02539457  2.01241180  0.00216101
   4.01952316  2.01821530  4.02674464
   4.02699368  2.01054704  8.04865480
   4.03017078  6.03416939  0.00695974
   4.00214145  6.03509119  4.04945140
   4.01990592  6.03312686  8.02460454
   4.02209543 10.06744128  0.00088375
   4.02776760 10.06622111  4.02310126
   4.02244357 10.06721345  8.04865172
   8.04954256  2.01526261 12.07887590
   8.04644834  2.00697094  4.01962157
   8.04864128  2.01542097  8.05354809
   8.04777053  6.02900755  0.01096616
   8.02290183  6.03683266  3.98854863
   8.03360302  6.03553481  8.05475010
   8.04727053 10.07066586  0.01182149
   8.05011081 10.06424135  4.02845286
   7.96992085 10.14263109  8.03239612
   0.00425700  0.00136453  2.01342994
   0.00066966 12.07347258  6.03724218
   0.01069673  0.00993900 10.06437990
   0.00857209  4.02651551  2.00979595
   0.02354262  4.02860200  6.03585902
   0.00701368  4.01399545 10.07202356
   0.00652762  8.04750836  2.01248993
   0.18163823  8.07124784  5.94442617
   0.00805410  8.04435975 10.05896254
   4.02539625  0.00218814  2.01243350
   4.03016995  0.00697402  6.03420065
   4.02209372  0.00084584 10.06746357
   4.01943949  4.02672756  2.01821219
   4.00215469  4.04943307  6.03511014
   4.02786252  4.02307281 10.06622636
   4.02698400  8.04862458  2.01057525
   4.01989556  8.02458683  6.03315092
   4.02244090  8.04863505 10.06723690
   8.04954359 12.07848666  2.01530640
   8.04777217  0.01067350  6.02904154
   8.04727050  0.01187951 10.07071913
   8.04643879  4.01953088  2.00755273
   8.02290380  3.98845933  6.03689756
   8.05011945  4.02843234 10.06470330
   8.04864024  8.05355737  2.01540678
   8.03360299  8.05466480  6.03562445
   7.96991910  8.03227854 10.14268569
   2.01426557  2.01621016  2.01622539
   2.01566993  1.99046118  6.03440901
   2.01800406  2.01029646 10.06735163
   2.01567075  6.03437950  1.99048354
   0.52346218  6.80484594  6.80486160
   2.04474568  6.03443279 10.10341156
   2.01800615 10.06732915  2.01033177
   2.04474777 10.10338684  6.03445478
   2.01252118 10.06389419 10.06392125
   6.03458780  2.01282058  2.01286411
   6.02599317  2.01291212  6.03476737
   6.03614821  2.01588246 10.06748381
   6.02596723  6.03473693  2.01293585
   6.05788013  6.03299945  6.03305140
   6.02265062  6.02818927 10.06675300
   6.03612868 10.06745786  2.01588718
   6.02262579 10.06672624  6.02823760
   6.02403959 10.07018954 10.07021618
  10.06732506  2.00530113  2.00534880
  10.06775013  2.00427317  6.03529832
  10.06665212  2.01816512 10.06636013
  10.06777168  6.03526683  2.00429614
   9.97213484  5.88334031  5.88338988
  10.06638436  6.03767805 10.06788855
  10.06667083 10.06633489  2.01816431
  10.06640872 10.06786326  6.03772570
  10.08682843 10.14308735 10.14311137
   2.01470812  0.00125577  0.00128304
   2.01673301  0.00133791  4.01828122
   2.01521726  0.00041078  8.05482787
   2.01673286  4.01825388  0.00134262
   2.01306676  4.05027075  4.05028317
   2.05573248  3.99856364  8.03772149
   2.01521700  8.05480192  0.00043959
   2.05573965  8.03770642  3.99858884
   2.04479041  8.03821840  8.03824433
   6.03614187  0.00193690  0.00194918
   6.03519156  0.00169654  4.02309347
   6.01657742  0.02119358  8.05110072
   6.03519977  4.02306893  0.00197085
   6.02720721  4.02467522  4.02475891
   6.03041348  4.02400420  8.04891438
   6.01657709  8.05107414  0.02119822
   6.03034090  8.04884515  4.02402899
   6.01864282  8.05033162  8.05036756
  10.06754698  0.01954240  0.01955294
  10.06677866 12.07730091  4.02375643
  10.06589028  0.01331044  8.05325621
  10.06676859  4.02373285 12.07760449
  10.06928290  3.97905061  3.97914248
  10.06898186  4.02728250  8.04896481
  10.06588999  8.05322969  0.01331153
  10.06904812  8.04889306  4.02730295
   9.82154068  8.29571692  8.29575382
 


--------------------------------------------------------------------------------------------------------


 k-point   1 :   0.0000 0.0000 0.0000  plane waves:   31919

 maximum and minimum number of plane-waves per node :     31919    31919

 maximum number of plane-waves:     31919
 maximum index in each direction: 
   IXMAX=   19   IYMAX=   19   IZMAX=   19
   IXMIN=  -19   IYMIN=  -19   IZMIN=  -19


 serial   3D FFT for wavefunctions
 parallel 3D FFT for charge:
    minimum data exchange during FFTs selected (reduces bandwidth)


 total amount of memory used by VASP MPI-rank0  1466161. kBytes
=======================================================================

   base      :      30000. kBytes
   nonl-proj :     114397. kBytes
   fftplans  :     141100. kBytes
   grid      :     372121. kBytes
   one-center:       1327. kBytes
   wavefun   :     807216. kBytes
 
     INWAV:  cpu time      0.3944: real time      0.9388
 Broyden mixing: mesh for mixing (old mesh)
   NGX = 39   NGY = 39   NGZ = 39
  (NGX  =160   NGY  =160   NGZ  =160)
  gives a total of  59319 points

 initial charge density was supplied:
 charge density of overlapping atoms calculated
 number of electron    1080.0000000 magnetization     216.0000000
 keeping initial charge density in first step


--------------------------------------------------------------------------------------------------------


 Maximum index for augmentation-charges          3652 (set IRDMAX)


--------------------------------------------------------------------------------------------------------


 First call to EWALD:  gamma=   0.147
 Maximum number of real-space cells 3x 3x 3
 Maximum number of reciprocal cells 3x 3x 3

    FEWALD:  cpu time      0.2522: real time      0.2529


--------------------------------------- Ionic step        1  -------------------------------------------




--------------------------------------- Iteration      1(   1)  ---------------------------------------


    POTLOK:  cpu time      0.1294: real time      0.1417
    SETDIJ:  cpu time      0.7051: real time      0.7073
     EDDAV:  cpu time      9.3459: real time      9.3807
       DOS:  cpu time      0.0003: real time      0.0003
    CHARGE:  cpu time      0.4687: real time      0.4704
    MIXING:  cpu time      0.0629: real time      0.0632
    --------------------------------------------
      LOOP:  cpu time     10.7123: real time     10.7636

 eigenvalue-minimisations  :  3028
 total energy-change (2. order) :-0.9156549E+03  (-0.5661820E+03)
 number of electron    1080.0000045 magnetization     142.4005295
 augmentation part      259.5198361 magnetization     143.9600005

 Broyden mixing:
  rms(total) = 0.13395E+02    rms(broyden)= 0.13382E+02
  rms(prec ) = 0.13716E+02
  weight for this iteration     100.00

 Free energy of the ion-electron system (eV)
  ---------------------------------------------------
  alpha Z        PSCENC =      2167.32059008
  Ewald energy   TEWEN  =    -60063.56957247
  -Hartree energ DENC   =    -23076.99656138
  -exchange      EXHF   =         0.00000000
  -V(xc)+E(xc)   XCENC  =      5435.74866392
  PAW double counting   =     53780.49107149   -55988.61141440
  entropy T*S    EENTRO =        -0.00000000
  eigenvalues    EBANDS =    -16264.89556646
  atomic energy  EATOM  =     93094.85783989
  Solvation  Ediel_sol  =         0.00000000
  ---------------------------------------------------
  free energy    TOTEN  =      -915.65494932 eV

  energy without entropy =     -915.65494932  energy(sigma->0) =     -915.65494932


--------------------------------------------------------------------------------------------------------




--------------------------------------- Iteration      1(   2)  ---------------------------------------


    POTLOK:  cpu time      0.0997: real time      0.1006
    SETDIJ:  cpu time      0.7049: real time      0.7073
     EDDAV:  cpu time      9.5476: real time      9.5805
       DOS:  cpu time      0.0003: real time      0.0003
    CHARGE:  cpu time      0.4448: real time      0.4464
    MIXING:  cpu time      0.0652: real time      0.0655
    --------------------------------------------
      LOOP:  cpu time     10.8624: real time     10.9006

 eigenvalue-minimisations  :  3220
 total energy-change (2. order) : 0.4430684E+03  (-0.9408664E+02)
 number of electron    1080.0000039 magnetization     104.3628144
 augmentation part      258.4015549 magnetization      90.0760589

 Broyden mixing:
  rms(total) = 0.65031E+01    rms(broyden)= 0.64998E+01
  rms(prec ) = 0.67747E+01
  weight for this iteration     100.00

 eigenvalues of (default mixing * dielectric matrix)
  average eigenvalue GAMMA=   0.7382
  0.7382

 Free energy of the ion-electron system (eV)
  ---------------------------------------------------
  alpha Z        PSCENC =      2167.32059008
  Ewald energy   TEWEN  =    -60063.56957247
[...]
      4.02820      2.01856      8.04074        -0.000536      0.000513     -0.000533
      4.03998      6.03676      0.00553        -0.001898     -0.000794      0.000240
      3.95976      6.02713      4.08600         0.002080     -0.001474     -0.002838
      3.93405      6.03799      7.98091         0.030299     -0.000410     -0.000555
      4.03333     10.06591      0.00273         0.001128      0.000877      0.001492
      4.01862     10.05636      4.03024         0.001903      0.000995     -0.002143
      4.03037     10.06946      8.05070         0.010210      0.009456      0.001203
      8.04197      2.01192     12.07722         0.001995     -0.000109      0.000486
      8.03978      2.01157      4.02308         0.001882      0.001307      0.000391
      8.04007      2.01146      8.04724         0.000139     -0.000189     -0.000377
      8.03821      6.03695      0.00191         0.000032      0.000232      0.000266
      8.03645      6.02944      4.00733         0.008134     -0.000808      0.008170
      8.04244      6.03887      8.04608         0.029916      0.000816      0.000111
      8.04242     10.06554      0.00081         0.001491     -0.000268     -0.001129
      8.04874     10.05977      4.02654         0.000890      0.000180     -0.000109
      8.04049     10.07154      8.05389         0.010043     -0.009415      0.000600
      0.00097      0.02262      1.98972        -0.001289      0.000077      0.000115
     -0.00219     12.12957      6.02701        -0.004881      0.002989      0.000650
      0.00179      0.00740     10.08546        -0.003335     -0.000833     -0.001577
      0.01032      4.00491      2.01080        -0.002705     -0.000009      0.000565
      0.06449      3.97933      5.98914        -0.021603     -0.010739     -0.003003
      0.00452      3.90390     10.18001         0.000211     -0.004891      0.004172
      0.00969      8.05210      1.97469        -0.005840     -0.000128     -0.000305
      0.01715      8.49447      5.62414        -0.179434      0.035709     -0.012778
      0.00762      8.08719     10.13519        -0.019224     -0.000388     -0.002764
      4.03150      0.00068      2.01415         0.000059      0.000315     -0.000045
      4.03998      0.00548      6.03681        -0.001899      0.000240     -0.000794
      4.03333      0.00267     10.06596         0.001128      0.001493      0.000877
      4.02320      4.03112      2.02254         0.000267     -0.000602      0.000157
      3.95976      4.08594      6.02718         0.002080     -0.002838     -0.001474
      4.01862      4.03019     10.05641         0.001903     -0.002142      0.000995
      4.02820      8.04069      2.01861        -0.000534     -0.000532      0.000512
      3.93405      7.98085      6.03804         0.030304     -0.000554     -0.000413
      4.03037      8.05065     10.06951         0.010210      0.001204      0.009454
      8.04197     12.07716      2.01197         0.001995      0.000487     -0.000109
      8.03821      0.00185      6.03701         0.000032      0.000268      0.000232
      8.04242      0.00076     10.06559         0.001491     -0.001129     -0.000268
      8.03978      4.02303      2.01163         0.001882      0.000390      0.001306
      8.03645      4.00728      6.02949         0.008133      0.008171     -0.000808
      8.04874      4.02650     10.05982         0.000890     -0.000109      0.000180
      8.04007      8.04720      2.01151         0.000139     -0.000378     -0.000189
      8.04244      8.04604      6.03892         0.029914      0.000113      0.000811
      8.04049      8.05383     10.07159         0.010044      0.000602     -0.009416
      2.02434      2.01986      2.01991        -0.001525      0.000651      0.000652
      2.03235      1.99557      6.02569        -0.002328      0.002363     -0.000002
      2.02817      2.00757     10.06422        -0.001060     -0.000713     -0.001213
      2.03235      6.02564      1.99563        -0.002328     -0.000000      0.002363
      0.23247      6.97961      6.97965         1.019924     -0.058750     -0.058740
      2.03997      6.04934     10.12573        -0.022967     -0.002616     -0.006242
      2.02817     10.06417      2.00762        -0.001060     -0.001213     -0.000714
      2.03998     10.12568      6.04939        -0.022969     -0.006246     -0.002615
      2.02150     10.08197     10.08202        -0.003399      0.009008      0.009006
      6.03381      2.01382      2.01387         0.001409      0.000176      0.000175
      6.02644      2.02161      6.03524         0.001683      0.000477     -0.000710
      6.03537      2.01841     10.06109         0.001781     -0.000358      0.000751
      6.02644      6.03518      2.02167         0.001682     -0.000710      0.000476
      6.02923      6.03833      6.03838         0.011691     -0.000979     -0.000979
      6.02494      6.03707     10.04630         0.006712     -0.000496      0.000148
      6.03537     10.06104      2.01846         0.001781      0.000752     -0.000358
      6.02494     10.04625      6.03712         0.006712      0.000150     -0.000498
      6.03637     10.06385     10.06391         0.004144      0.000788      0.000787
     10.05458      2.00935      2.00941         0.000822      0.001486      0.001486
     10.05430      2.00637      6.02675        -0.003557      0.002304      0.000572
     10.05167      2.00001     10.06828        -0.000383      0.000451     -0.000617
     10.05430      6.02670      2.00642        -0.003556      0.000572      0.002303
     10.04339      5.95001      5.95006         0.042904      0.080658      0.080665
     10.05029      6.04746     10.11458        -0.020064      0.005077     -0.005722
     10.05168     10.06823      2.00006        -0.000383     -0.000618      0.000453
     10.05029     10.11453      6.04751        -0.020064     -0.005721      0.005075
     10.06063     10.08372     10.08377        -0.003302     -0.010738     -0.010737
      2.02470      0.00369      0.00374        -0.001692      0.000883      0.000883
      2.02773      0.01347      4.01493        -0.000944      0.000998      0.001518
      2.02937      0.01380      8.06229        -0.002824      0.001696     -0.001702
      2.02773      4.01488      0.01352        -0.000943      0.001517      0.001001
      2.01442      4.08014      4.08019        -0.003759     -0.000425     -0.000426
      2.02867      4.01729      7.97065        -0.019772     -0.004202      0.002390
      2.02937      8.06224      0.01385        -0.002823     -0.001701      0.001695
      2.02867      7.97060      4.01734        -0.019773      0.002390     -0.004202
      2.03791      8.09606      8.09612         0.049276      0.081190      0.081190
      6.03728     -0.00037     -0.00032         0.001243      0.000654      0.000654
      6.03450     -0.00500      4.02639         0.001866      0.000950     -0.000812
      6.03605      0.00119      8.04956         0.003010      0.000511      0.000472
      6.03450      4.02634     -0.00494         0.001866     -0.000812      0.000949
      6.02378      4.03239      4.03244         0.002415     -0.000144     -0.000143
      6.02118      4.04149      8.03917         0.006658     -0.000673     -0.000395
      6.03605      8.04951      0.00124         0.003011      0.000472      0.000510
      6.02118      8.03913      4.04153         0.006659     -0.000396     -0.000674
      6.01715      8.03737      8.03742         0.018774      0.000213      0.000214
     10.05344      0.00192      0.00197         0.000174     -0.000863     -0.000862
     10.05072     12.09185      4.01849         0.000223     -0.000132      0.000827
     10.05232      0.01103      8.05644        -0.002243     -0.002945     -0.000802
     10.05072      4.01844     12.09190         0.000223      0.000826     -0.000133
     10.06957      4.00617      4.00622        -0.003387      0.012970      0.012969
     10.05869      3.97516      8.02798        -0.018274      0.009169     -0.005850
     10.05232      8.05639      0.01108        -0.002243     -0.000802     -0.002944
     10.05869      8.02794      3.97521        -0.018274     -0.005853      0.009172
     10.05948      8.10649      8.10654         0.069737     -0.076302     -0.076309
 -----------------------------------------------------------------------------------
    total drift:                               -0.004775      0.003662      0.003584


--------------------------------------------------------------------------------------------------------



  FREE ENERGIE OF THE ION-ELECTRON SYSTEM (eV)
  ---------------------------------------------------
  free  energy   TOTEN  =     -1054.05085419 eV

  energy  without entropy=    -1054.05085419  energy(sigma->0) =    -1054.05085419
 
 d Force =-0.2287696E-01[-0.227E-01,-0.230E-01]  d Energy =-0.2288608E-01 0.912E-05
 d Force =-0.4947441E+00[-0.509E+00,-0.480E+00]  d Ewald  =-0.4947530E+00 0.887E-05


--------------------------------------------------------------------------------------------------------


    POTLOK:  cpu time      0.8409: real time      0.8438


--------------------------------------------------------------------------------------------------------


 NEB: the previous image is higher in energy:  F
 NEB: the next image is higher in energy    :  T
 NEB: only next energy greater

 NEB: Tangent
 ----------------------------------------------
     -0.00242      0.00047      0.00047
     -0.00371     -0.00004      0.00069
     -0.00284      0.00025     -0.00072
     -0.00371      0.00069     -0.00004
     -0.00300      0.00298      0.00298
      0.00029      0.00290      0.00020
     -0.00284     -0.00072      0.00024
      0.00029      0.00021      0.00290
      0.03372      0.00387      0.00387
      0.00135      0.00041      0.00041
      0.00214      0.00200     -0.00146
      0.00245      0.00171      0.00097
      0.00214     -0.00146      0.00200
      0.00257     -0.00123     -0.00123
      0.01241     -0.01068      0.00032
      0.00245      0.00097      0.00171
      0.01241      0.00032     -0.01068
      0.00702      0.00271      0.00272
      0.00063     -0.00030     -0.00030
      0.00154     -0.00087      0.00125
      0.00199     -0.00077     -0.00069
      0.00154      0.00125     -0.00087
      0.00397      0.00252      0.00252
      0.01153      0.00903     -0.00279
      0.00199     -0.00069     -0.00077
      0.01153     -0.00279      0.00903
      0.00452     -0.00232     -0.00232
     -0.00243      0.00068      0.00068
     -0.00222      0.00092     -0.00021
     -0.00362     -0.00000     -0.00008
     -0.00222     -0.00021      0.00092
      0.05884      0.02130      0.02129
      0.00027     -0.00098     -0.01289
     -0.00362     -0.00008     -0.00000
      0.00027     -0.01289     -0.00098
     -0.00422      0.00155      0.00155
      0.00121      0.00004      0.00004
      0.00318     -0.00190     -0.00090
      0.00218     -0.00111      0.00109
      0.00318     -0.00090     -0.00190
      0.00750     -0.00398     -0.00398
      0.01702     -0.00217      0.01662
      0.00218      0.00109     -0.00111
      0.01702      0.01662     -0.00217
      0.00311      0.00208      0.00208
      0.00061      0.00054      0.00054
      0.00301      0.00162      0.00047
      0.00145      0.00110     -0.00128
      0.00301      0.00047      0.00162
      0.00860      0.00233      0.00233
      0.01140      0.00234     -0.00939
      0.00145     -0.00128      0.00110
      0.01140     -0.00939      0.00234
      0.00336     -0.00237     -0.00237
     -0.00082      0.00189     -0.00177
     -0.00063      0.00263     -0.00094
     -0.00090      0.00067      0.00116
     -0.00094     -0.00170     -0.00073
      0.00575     -0.00940     -0.00301
     -0.00048     -0.01101      0.01180
      0.00020      0.00054     -0.00133
      0.11774      0.06142     -0.05123
      0.00017      0.00055      0.00615
      0.00172      0.00007      0.00019
      0.00615      0.00099      0.00004
      0.00259     -0.00002     -0.00008
      0.00253      0.00022      0.00062
      0.00548      0.00026     -0.00011
      0.00550      0.00004     -0.00051
      0.00501     -0.00035      0.00024
      0.00562     -0.00083      0.00003
      0.00477      0.00011     -0.00027
     -0.00149     -0.00055      0.00091
      0.00056     -0.00147      0.00060
     -0.00154      0.00010     -0.00053
     -0.00134      0.00056      0.00058
      0.00362      0.00439     -0.00074
     -0.00258      0.00564     -0.00632
     -0.00042     -0.00118      0.00116
      0.06857     -0.03671      0.04269
     -0.00016      0.00051     -0.00136
     -0.00082     -0.00177      0.00189
     -0.00094     -0.00072     -0.00170
      0.00020     -0.00133      0.00054
     -0.00063     -0.00094      0.00263
      0.00575     -0.00301     -0.00940
      0.11774     -0.05123      0.06142
     -0.00090      0.00116      0.00067
     -0.00048      0.01180     -0.01101
      0.00017      0.00615      0.00055
      0.00172      0.00019      0.00007
      0.00253      0.00062      0.00022
      0.00501      0.00024     -0.00035
      0.00615      0.00004      0.00099
      0.00548     -0.00011      0.00026
      0.00562      0.00003     -0.00083
      0.00259     -0.00008     -0.00002
      0.00550     -0.00051      0.00004
      0.00477     -0.00027      0.00011
     -0.00149      0.00091     -0.00055
     -0.00134      0.00058      0.00056
     -0.00042      0.00116     -0.00118
      0.00056      0.00060     -0.00147
      0.00362     -0.00074      0.00439
      0.06857      0.04269     -0.03671
     -0.00154     -0.00053      0.00010
     -0.00258     -0.00632      0.00565
     -0.00016     -0.00136      0.00051
      0.00143      0.00034     -0.00043
      0.00249     -0.00044      0.00071
      0.00516      0.00065     -0.00006
      0.00447     -0.00048     -0.00270
      0.01882      0.00319      0.00927
      0.15853      0.01196     -0.03083
      0.00297      0.00072      0.00066
      0.00042     -0.00371      0.00453
      0.01769      0.00258      0.00006
     -0.00072      0.00009     -0.00045
     -0.00060     -0.00023      0.00027
      0.00014     -0.00017      0.00025
      0.00172      0.00056     -0.00039
     -0.00174      0.00127      0.00266
     -0.02329      0.00043      0.00081
     -0.00099     -0.00057     -0.00108
     -0.00186     -0.00104      0.00172
     -0.00911     -0.00870     -0.00096
     -0.00108     -0.00001     -0.00018
     -0.00150     -0.00136     -0.00065
     -0.00038     -0.00052      0.00064
      0.00023     -0.00039     -0.00003
     -0.00736      0.00066     -0.00806
     -0.02677     -0.00095      0.00020
     -0.00146      0.00057      0.00105
     -0.00040      0.00055     -0.00039
     -0.00903      0.00897     -0.00032
      0.00143     -0.00043      0.00034
      0.00447     -0.00270     -0.00048
      0.00297      0.00066      0.00072
      0.00249      0.00071     -0.00044
      0.01882      0.00927      0.00319
      0.00042      0.00453     -0.00371
      0.00516     -0.00006      0.00065
      0.15853     -0.03082      0.01196
      0.01768      0.00006      0.00258
     -0.00072     -0.00045      0.00009
      0.00172     -0.00039      0.00056
     -0.00099     -0.00108     -0.00057
     -0.00060      0.00027     -0.00023
     -0.00174      0.00266      0.00127
     -0.00186      0.00172     -0.00104
      0.00014      0.00025     -0.00017
     -0.02329      0.00081      0.00043
     -0.00911     -0.00096     -0.00870
     -0.00108     -0.00018     -0.00001
      0.00023     -0.00003     -0.00039
     -0.00146      0.00105      0.00057
     -0.00150     -0.00065     -0.00136
     -0.00736     -0.00806      0.00066
     -0.00040     -0.00039      0.00055
     -0.00038      0.00064     -0.00052
     -0.02677      0.00020     -0.00095
     -0.00903     -0.00033      0.00897
      0.00081     -0.00055     -0.00055
      0.00210     -0.00196      0.00033
      0.00064      0.00087      0.00046
      0.00210      0.00033     -0.00196
     -0.90985      0.05200      0.05200
      0.02048      0.00228      0.00471
      0.00064      0.00046      0.00087
      0.02048      0.00472      0.00228
      0.00316     -0.00862     -0.00862
     -0.00134     -0.00021     -0.00021
     -0.00159     -0.00080      0.00027
     -0.00148      0.00027     -0.00010
     -0.00159      0.00027     -0.00080
     -0.00983      0.00015      0.00015
     -0.00583      0.00021      0.00077
     -0.00148     -0.00010      0.00027
     -0.00583      0.00077      0.00021
     -0.00354     -0.00026     -0.00026
      0.00013     -0.00140     -0.00140
      0.00298     -0.00238     -0.00042
      0.00077     -0.00060      0.00076
      0.00298     -0.00042     -0.00238
     -0.03876     -0.07178     -0.07178
      0.01779     -0.00457      0.00572
      0.00077      0.00077     -0.00060
      0.01779      0.00572     -0.00457
      0.00317      0.00972      0.00972
      0.00089     -0.00083     -0.00083
      0.00069     -0.00104     -0.00118
      0.00285     -0.00168      0.00100
      0.00069     -0.00118     -0.00104
      0.00299      0.00100      0.00100
      0.01777      0.00566     -0.00229
      0.00285      0.00100     -0.00168
      0.01777     -0.00229      0.00566
     -0.04337     -0.07359     -0.07359
     -0.00136     -0.00008     -0.00008
     -0.00142     -0.00061      0.00019
     -0.00285     -0.00038      0.00005
     -0.00142      0.00019     -0.00061
     -0.00240     -0.00021     -0.00021
     -0.00589     -0.00018      0.00061
     -0.00285      0.00005     -0.00038
     -0.00589      0.00062     -0.00018
     -0.01629      0.00036      0.00036
      0.00024      0.00101      0.00101
      0.00060      0.00023     -0.00066
      0.00184      0.00258      0.00043
      0.00060     -0.00066      0.00023
      0.00294     -0.01176     -0.01176
      0.01574     -0.00882      0.00553
      0.00184      0.00043      0.00258
      0.01574      0.00553     -0.00882
     -0.06248      0.06843      0.06844

 NEB: forces: par spring, perp REAL, dneb     0.007224    0.013332    0.000000
 NEB: distance to prev, next image, angle between     0.685139    0.686584  149.174208
 NEB: projections on to tangent (spring, REAL)     0.007224   -1.121940

 stress matrix after NEB project (eV)
      0.00000      0.00000      0.00000
      0.00000      0.00000      0.00000
      0.00000      0.00000      0.00000
  FORCES: max atom, RMS     0.007452    0.001032
  FORCE total and by dimension    0.015164    0.007452
  Stress total and by dimension    0.000000    0.000000
 OPT: skip step - force has converged


--------------------------------------------------------------------------------------------------------


  
 reached required accuracy - stopping structural energy minimisation
 writing wavefunctions
     LOOP+:  cpu time    266.8189: real time    268.3011
    4ORBIT:  cpu time      0.0000: real time      0.0000

 total amount of memory used by VASP MPI-rank0  1466161. kBytes
=======================================================================

   base      :      30000. kBytes
   nonl-proj :     114397. kBytes
   fftplans  :     141100. kBytes
   grid      :     372121. kBytes
   one-center:       1327. kBytes
   wavefun   :     807216. kBytes
 
  
  
 General timing and accounting informations for this job:
 ========================================================
  
                  Total CPU time used (sec):     7151.803
                            User time (sec):     7097.496
                          System time (sec):       54.306
                         Elapsed time (sec):     7182.182
  
                   Maximum memory used (kb):     3142620.
                   Average memory used (kb):          N/A
  
                          Minor page faults:      1044282
                          Major page faults:            0
                 Voluntary context switches:       288913
