 vasp.6.4.2 20Jul23 (build Jun  3 2025 15:36:07) complex                         
 executed on              LinuxNV date 2025.06.27  12:57:04
 running    7 mpi-ranks, with    1 threads/rank, on    7 nodes
 each image running on    1 cores
 distrk:  each k-point on    1 cores,    1 groups
 distr:  one band on NCORE=   1 cores,    1 groups
 OpenACC runtime initialized ...    7 GPUs detected


--------------------------------------------------------------------------------------------------------


 INCAR:
   SYSTEM = Si
   ISTART = 1
   ICHARG = 2
   NCORE = 8
   ISPIN = 2
   NELECT = 1080
   NELM = 20
   ENCUT = 400
   PREC = Accurate
   ISMEAR = 0
   SIGMA = 0.01
   EDIFF = 1E-10
   IBRION = 3
   NSW = 500
   POTIM = 0
   ISIF = 0
   IOPT = 1
   EDIFFG = -0.010
   ICHAIN = 0
   IMAGES = 7
   SPRING = -5.0
   LCLIMB = .FALSE.

 POTCAR:   PAW_PBE F 08Apr2002                    
 POTCAR:    PAW_PBE Li_sv 10Sep2004               
 -----------------------------------------------------------------------------
|                                                                             |
|           W    W    AA    RRRRR   N    N  II  N    N   GGGG   !!!           |
|           W    W   A  A   R    R  NN   N  II  NN   N  G    G  !!!           |
|           W    W  A    A  R    R  N N  N  II  N N  N  G       !!!           |
|           W WW W  AAAAAA  RRRRR   N  N N  II  N  N N  G  GGG   !            |
|           WW  WW  A    A  R   R   N   NN  II  N   NN  G    G                |
|           W    W  A    A  R    R  N    N  II  N    N   GGGG   !!!           |
|                                                                             |
|     You use a magnetic or noncollinear calculation, but did not specify     |
|     the initial magnetic moment with the MAGMOM tag. Note that a            |
|     default of 1 will be used for all atoms. This ferromagnetic setup       |
|     may break the symmetry of the crystal, in particular it may rule        |
|     out finding an antiferromagnetic solution. Thence, we recommend         |
|     setting the initial magnetic moment manually or verifying carefully     |
|     that this magnetic setup is desired.                                    |
|                                                                             |
 -----------------------------------------------------------------------------

 POTCAR:   PAW_PBE F 08Apr2002                    
   VRHFIN =F: s2p5                                                                                  
   LEXCH  = PE                                                                                      
   EATOM  =   659.4942 eV,   48.4715 Ry                                                             
                                                                                                    
   TITEL  = PAW_PBE F 08Apr2002                                                                     
   LULTRA =        F    use ultrasoft PP ?                                                          
   IUNSCR =        0    unscreen: 0-lin 1-nonlin 2-no                                               
   RPACOR =     .000    partial core radius                                                         
   POMASS =   18.998; ZVAL   =    7.000    mass and valenz                                          
   RCORE  =    1.520    outmost cutoff radius                                                       
   RWIGS  =    1.500; RWIGS  =     .794    wigner-seitz radius (au A)                               
   ENMAX  =  400.000; ENMIN  =  300.000 eV                                                          
   ICORE  =        2    local potential                                                             
   LCOR   =        T    correct aug charges                                                         
   LPAW   =        T    paw PP                                                                      
   EAUG   =  613.614                                                                                
   DEXC   =     .000                                                                                
   RMAX   =    2.254    core radius for proj-oper                                                   
   RAUG   =    1.300    factor for augmentation sphere                                              
   RDEP   =    1.539    radius for radial grids                                                     
   QCUT   =   -5.545; QGAM   =   11.091    optimization parameters                                  
                                                                                                    
   Description                                                                                      
     l     E      TYP  RCUT    TYP  RCUT                                                            
     0   .000     23  1.200                                                                         
     0  -.700     23  1.200                                                                         
     1   .000     23  1.520                                                                         
     1   .100     23  1.520                                                                         
     2   .000      7  1.500                                                                         
  local pseudopotential read in
  atomic valenz-charges read in
  non local Contribution for L=            0  read in
    real space projection operators read in
  non local Contribution for L=            0  read in
    real space projection operators read in
  non local Contribution for L=            1  read in
    real space projection operators read in
  non local Contribution for L=            1  read in
    real space projection operators read in
    PAW grid and wavefunctions read in
 
   number of l-projection  operators is LMAX  =            4
   number of lm-projection operators is LMMAX =            8
 
 POTCAR:    PAW_PBE Li_sv 10Sep2004               
   VRHFIN =Li: 1s2s2p                                                                               
   LEXCH  = PE                                                                                      
   EATOM  =   202.7858 eV,   14.9043 Ry                                                             
                                                                                                    
   TITEL  = PAW_PBE Li_sv 10Sep2004                                                                 
   LULTRA =        F    use ultrasoft PP ?                                                          
   IUNSCR =        0    unscreen: 0-lin 1-nonlin 2-no                                               
   RPACOR =     .000    partial core radius                                                         
   POMASS =    7.010; ZVAL   =    3.000    mass and valenz                                          
   RCORE  =    1.700    outmost cutoff radius                                                       
   RWIGS  =    2.050; RWIGS  =    1.085    wigner-seitz radius (au A)                               
   ENMAX  =  499.034; ENMIN  =  374.276 eV                                                          
   ICORE  =        2    local potential                                                             
   LCOR   =        T    correct aug charges                                                         
   LPAW   =        T    paw PP                                                                      
   EAUG   =  628.945                                                                                
   RMAX   =    2.064    core radius for proj-oper                                                   
   RAUG   =    1.300    factor for augmentation sphere                                              
   RDEP   =    1.728    radius for radial grids                                                     
   QCUT   =   -6.056; QGAM   =   12.112    optimization parameters                                  
                                                                                                    
   Description                                                                                      
     l     E      TYP  RCUT    TYP  RCUT                                                            
     0   .000     23  1.400                                                                         
     0   .000     23  1.700                                                                         
     1   .000     23  1.400                                                                         
     2   .000     23  1.400                                                                         
  local pseudopotential read in
  atomic valenz-charges read in
  non local Contribution for L=            0  read in
    real space projection operators read in
  non local Contribution for L=            0  read in
    real space projection operators read in
  non local Contribution for L=            1  read in
    real space projection operators read in
    PAW grid and wavefunctions read in
 
   number of l-projection  operators is LMAX  =            3
   number of lm-projection operators is LMMAX =            5
 
 -----------------------------------------------------------------------------
|                                                                             |
|               ----> ADVICE to this user running VASP <----                  |
|                                                                             |
|     You have a (more or less) 'large supercell' and for larger cells it     |
|     might be more efficient to use real-space projection operators.         |
|     Therefore, try LREAL= Auto in the INCAR file.                           |
|     Mind: If you want to do very accurate calculations, keep the            |
|     reciprocal projection scheme (i.e. LREAL=.FALSE.).                      |
|                                                                             |
 -----------------------------------------------------------------------------

 PAW_PBE F 08Apr2002                    :
 energy of atom  1       EATOM= -659.4942
 kinetic energy error for atom=    0.1980 (will be added to EATOM!!)
  PAW_PBE Li_sv 10Sep2004               :
 energy of atom  2       EATOM= -202.7858
 kinetic energy error for atom=    0.0926 (will be added to EATOM!!)
 
 
 POSCAR: Li   F
  positions in direct lattice
  No initial velocities read in
 exchange correlation table for  LEXCH =        8
   RHO(1)=    0.500       N(1)  =     2000
   RHO(2)=  100.500       N(2)  =     4000

 VTST: version 4.1, (05/19/21)

 CHAIN: initializing optimizer
 
 OPT: Using LBFGS optimizer
 OPT: LBFGS, Init
 OPT: LBFGS, MEMORY             20
 OPT: LBFGS, IMAGES              7
 OPT: LBFGS, MAXMOVE      0.200000
 OPT: LBFGS, LGLOBAL      T
 OPT: LBFGS, INVCURV      0.010000
 OPT: LBFGS, LLINEOPT      F
 OPT: LBFGS, FDSTEP       0.005000
 OPT: LBFGS, LAUTOSCALE      T
 OPT: LBFGS, DAMPING      2.000000
 
 CHAIN: Read ICHAIN             0
 CHAIN: Running the NEB
 NEB:          SPRING     -5.000000
 NEB:          LCLIMB      F
 NEB:     LTANGENTOLD      F
 NEB:           LDNEB      F
 NEB:        LDNEBORG      F
 NEB:        LNEBCELL      F
 NEB:          EFIRST      0.000000
 NEB:           ELAST      0.000000
 
 POSCAR: Li   F
  positions in direct lattice
  No initial velocities read in
 
 POSCAR: Li   F
  positions in direct lattice
  No initial velocities read in
 
 POSCAR: Li   F
  positions in direct lattice
  No initial velocities read in
 
 POSCAR: Li   F
  positions in direct lattice
  No initial velocities read in
 


--------------------------------------------------------------------------------------------------------


 ion  position               nearest neighbor table
   1  1.000  1.000  1.000- 208 2.01 115 2.01 138 2.01 136 2.01 109 2.01 190 2.02
   2  0.000  1.000  0.333- 116 2.01 136 2.01 110 2.01 137 2.01 209 2.01 191 2.01
   3  0.000  1.000  0.667- 138 2.01 192 2.01 210 2.01 137 2.01 111 2.01 117 2.02
   4  0.000  0.333  1.000- 141 2.01 109 2.01 139 2.01 112 2.01 211 2.01 193 2.01
   5  0.999  0.334  0.334- 212 2.00 140 2.01 113 2.01 139 2.02 110 2.02 194 2.02
   6  0.001  0.333  0.666- 114 1.95 111 2.01 140 2.01 141 2.02 213 2.02 195 2.03
   7  0.000  0.667  1.000- 115 2.01 196 2.01 214 2.01 112 2.01 142 2.01 144 2.02
   8  0.001  0.666  0.333- 143 1.95 142 2.01 113 2.01 116 2.02 215 2.02 197 2.03
   9  0.002  0.665  0.665- 198 2.01 117 2.02 144 2.02 143 2.07 114 2.07 216 2.24
  10  0.333  1.000  1.000- 199 2.01 124 2.01 147 2.01 190 2.01 145 2.01 118 2.01
  11  0.333  0.000  0.333- 200 2.01 145 2.01 191 2.01 146 2.01 125 2.01 119 2.02
  12  0.333  0.000  0.667- 201 2.00 120 2.01 192 2.01 147 2.01 126 2.02 146 2.02
  13  0.333  0.333  0.000- 202 2.01 118 2.01 193 2.01 121 2.01 150 2.01 148 2.02
  14  0.333  0.333  0.333- 203 2.01 119 2.01 148 2.01 194 2.01 149 2.01 122 2.01
  15  0.334  0.332  0.667- 195 1.99 204 2.00 120 2.00 150 2.01 149 2.02 123 2.02
  16  0.333  0.667  0.000- 205 2.00 151 2.01 196 2.01 124 2.01 153 2.02 121 2.02
  17  0.334  0.667  0.332- 197 1.99 206 2.00 151 2.00 125 2.01 122 2.02 152 2.02
  18  0.334  0.667  0.667- 207 1.99 198 2.00 126 2.01 153 2.01 152 2.02 123 2.02
  19  0.667  1.000  1.000- 156 2.01 133 2.01 208 2.01 199 2.02 127 2.02 154 2.02
  20  0.667  1.000  0.333- 155 2.01 128 2.01 154 2.01 134 2.01 200 2.01 209 2.02
  21  0.666  0.001  0.667- 135 1.97 129 2.00 156 2.01 201 2.02 155 2.02 210 2.02
  22  0.667  0.333  0.000- 130 2.01 157 2.01 127 2.01 159 2.01 202 2.01 211 2.02
  23  0.667  0.333  0.333- 212 2.01 157 2.01 128 2.01 158 2.02 131 2.02 203 2.03
  24  0.666  0.333  0.666- 129 2.01 158 2.01 204 2.01 132 2.02 159 2.02 213 2.02
  25  0.666  0.667  0.001- 162 1.97 160 2.00 133 2.01 205 2.02 130 2.02 214 2.02
  26  0.666  0.666  0.333- 160 2.01 131 2.01 206 2.01 161 2.02 134 2.02 215 2.02
  27  0.663  0.668  0.668- 216 1.89 207 1.99 161 2.03 132 2.03 135 2.06 162 2.06
  28  1.000  0.167  0.167- 181 2.01 136 2.01 109 2.01 110 2.01 139 2.01 163 2.02
  29  1.000  0.166  0.500- 182 2.01 137 2.01 110 2.01 111 2.01 164 2.02 140 2.03
  30  0.000  0.167  0.833- 138 2.00 141 2.01 109 2.01 183 2.01 165 2.02 111 2.02
  31  1.000  0.500  0.166- 184 2.01 112 2.01 139 2.01 142 2.01 166 2.02 113 2.03
  32  0.972  0.495  0.495- 167 1.55 185 1.75 113 1.99 140 1.99 143 2.14 114 2.14
  33  0.000  0.500  0.832- 114 1.99 144 2.01 141 2.02 186 2.02 112 2.02 168 2.03
  34  0.000  0.833  0.167- 115 2.00 116 2.01 136 2.01 187 2.01 169 2.02 142 2.02
  35  0.000  0.832  0.500- 143 1.99 117 2.01 116 2.02 188 2.02 137 2.02 170 2.03
  36  0.999  0.833  0.833- 189 1.99 144 2.02 117 2.02 138 2.02 115 2.02 171 2.02
  37  0.333  0.167  0.167- 172 2.01 118 2.01 145 2.01 163 2.01 148 2.02 119 2.02
  38  0.334  0.166  0.500- 173 2.00 146 2.00 119 2.01 120 2.01 164 2.02 149 2.04
  39  0.334  0.166  0.834- 174 2.01 147 2.01 165 2.01 118 2.01 150 2.01 120 2.02
  40  0.334  0.500  0.166- 175 2.00 121 2.00 148 2.01 151 2.01 166 2.02 122 2.04
  41  0.340  0.500  0.500- 176 1.95 149 1.99 122 1.99 123 2.00 152 2.00
  42  0.334  0.500  0.835- 177 1.99 121 2.00 168 2.00 150 2.01 153 2.01 123 2.05
  43  0.334  0.834  0.166- 178 2.01 124 2.01 169 2.01 145 2.01 125 2.01 151 2.02
  44  0.334  0.835  0.500- 179 1.99 146 2.00 170 2.00 125 2.01 126 2.01 152 2.05
  45  0.333  0.834  0.834- 180 2.00 147 2.01 124 2.01 171 2.01 153 2.02 126 2.02
  46  0.667  0.166  0.166- 154 2.01 128 2.01 127 2.01 157 2.01 181 2.02 172 2.02
  47  0.666  0.166  0.500- 158 1.99 155 2.00 128 2.01 173 2.02 129 2.02 182 2.02
  48  0.666  0.167  0.834- 156 2.01 127 2.01 174 2.01 159 2.01 129 2.02 183 2.02
  49  0.666  0.500  0.166- 131 1.99 130 2.00 157 2.01 175 2.02 160 2.02 184 2.02
  50  0.667  0.499  0.499- 185 1.95 176 2.00 131 2.03 158 2.03 161 2.03 132 2.03
  51  0.666  0.501  0.834- 162 1.99 130 2.01 177 2.02 159 2.02 132 2.02 186 2.02
  52  0.666  0.834  0.167- 133 2.00 154 2.01 178 2.01 134 2.01 160 2.01 187 2.02
  53  0.666  0.834  0.501- 135 1.99 155 2.01 179 2.02 134 2.02 161 2.02 188 2.02
  54  0.668  0.832  0.832- 189 2.01 135 2.01 162 2.01 133 2.04 156 2.04 180 2.04
  55  0.167  0.000  0.166- 190 2.01 136 2.01 191 2.01 169 2.01 145 2.01 163 2.02
  56  0.167  0.000  0.500- 170 1.99 164 2.00 137 2.01 146 2.02 191 2.02 192 2.02
  57  0.167  1.000  0.834- 138 2.00 147 2.01 190 2.01 165 2.01 171 2.01 192 2.01
  58  0.166  0.333  0.166- 163 2.00 139 2.00 193 2.00 148 2.01 166 2.02 194 2.04
  59  0.166  0.327  0.500- 164 1.96 140 1.99 195 2.00 194 2.00 149 2.00
  60  0.167  0.332  0.834- 165 2.00 193 2.01 141 2.01 150 2.01 168 2.02 195 2.03
  61  0.167  0.667  0.166- 196 2.00 197 2.00 169 2.01 151 2.01 142 2.01 166 2.02
  62  0.170  0.674  0.499- 143 1.92 170 1.96 152 1.97 167 1.98 198 2.02 197 2.03
  63  0.167  0.667  0.834- 196 2.01 171 2.01 144 2.01 153 2.01 168 2.02 198 2.03
  64  0.500  0.000  0.166- 199 2.01 154 2.01 178 2.01 172 2.01 200 2.01 145 2.01
  65  0.500  0.000  0.500- 173 2.01 155 2.01 146 2.01 201 2.01 200 2.01 179 2.02
  66  0.500  1.000  0.833- 156 2.01 180 2.01 199 2.01 201 2.02 174 2.02 147 2.02
  67  0.500  0.333  0.167- 157 2.01 172 2.01 202 2.01 203 2.01 175 2.01 148 2.02
  68  0.500  0.332  0.500- 158 1.99 173 2.00 203 2.01 204 2.01 176 2.02 149 2.04
  69  0.500  0.333  0.834- 174 2.01 177 2.01 159 2.01 202 2.01 150 2.01 204 2.02
  70  0.500  0.667  0.167- 205 2.00 151 2.01 206 2.01 160 2.01 178 2.01 175 2.02
  71  0.500  0.667  0.500- 161 1.99 179 2.01 206 2.01 207 2.02 152 2.02 176 2.03
  72  0.499  0.667  0.835- 162 1.97 153 2.00 180 2.01 205 2.01 177 2.03 207 2.03
  73  0.833  0.000  0.167- 208 2.00 181 2.01 209 2.01 187 2.01 154 2.02 136 2.02
  74  0.833  1.000  0.500- 182 2.01 188 2.01 209 2.01 137 2.02 155 2.02 210 2.02
  75  0.833  0.001  0.834- 189 1.97 183 2.00 208 2.02 156 2.02 138 2.02 210 2.02
  76  0.833  0.332  0.166- 212 1.99 211 2.01 181 2.01 157 2.02 139 2.02 184 2.02
  77  0.832  0.331  0.499- 185 1.93 182 1.99 158 2.03 213 2.03 212 2.03 140 2.04
  78  0.833  0.333  0.833- 183 2.01 211 2.01 186 2.01 159 2.02 141 2.02 213 2.02
  79  0.833  0.667  0.167- 214 2.00 187 2.01 215 2.01 160 2.02 184 2.02 142 2.02
  80  0.829  0.669  0.499- 161 1.98 188 1.98 215 2.00 185 2.16 143 2.20 216 2.22
  81  0.833  0.667  0.836- 216 1.88 214 1.99 144 2.02 186 2.02 189 2.06 162 2.07
  82  0.167  0.166  0.000- 190 2.01 109 2.01 193 2.01 165 2.01 118 2.01 163 2.02
  83  0.166  0.166  0.333- 163 2.00 110 2.00 191 2.00 119 2.01 164 2.02 194 2.04
  84  0.167  0.166  0.667- 192 2.00 195 2.00 165 2.01 120 2.01 111 2.01 164 2.02
  85  0.167  0.500  0.000- 168 1.99 166 2.00 112 2.01 121 2.02 193 2.02 196 2.02
  86  0.166  0.500  0.327- 166 1.96 113 1.99 197 2.00 194 2.00 122 2.00
  87  0.170  0.499  0.674- 114 1.92 168 1.96 123 1.97 167 1.98 198 2.02 195 2.03
  88  0.167  0.834  1.000- 115 2.00 124 2.01 190 2.01 169 2.01 171 2.01 196 2.01
  89  0.167  0.834  0.332- 169 2.00 191 2.01 116 2.01 125 2.01 170 2.02 197 2.03
  90  0.167  0.834  0.667- 192 2.01 171 2.01 117 2.01 126 2.01 170 2.02 198 2.03
  91  0.500  0.166  0.000- 199 2.01 127 2.01 174 2.01 172 2.01 202 2.01 118 2.01
  92  0.500  0.167  0.333- 128 2.01 172 2.01 200 2.01 203 2.01 173 2.01 119 2.02
  93  0.500  0.167  0.667- 201 2.00 120 2.01 204 2.01 129 2.01 174 2.01 173 2.02
  94  0.500  0.500  0.000- 175 2.01 130 2.01 121 2.01 205 2.01 202 2.01 177 2.02
  95  0.500  0.500  0.332- 131 1.99 175 2.00 203 2.01 206 2.01 176 2.02 122 2.04
  96  0.500  0.500  0.667- 132 1.99 177 2.01 204 2.01 207 2.02 123 2.02 176 2.03
  97  0.500  0.833  1.000- 133 2.01 180 2.01 199 2.01 205 2.02 178 2.02 124 2.02
  98  0.500  0.834  0.333- 178 2.01 179 2.01 134 2.01 200 2.01 125 2.01 206 2.02
  99  0.499  0.835  0.667- 135 1.97 126 2.00 180 2.01 201 2.01 179 2.03 207 2.03
 100  0.833  0.167  0.000- 208 2.00 181 2.01 211 2.01 183 2.01 127 2.02 109 2.02
 101  0.833  0.166  0.332- 212 1.99 209 2.01 181 2.01 128 2.02 110 2.02 182 2.02
 102  0.833  0.167  0.667- 210 2.00 183 2.01 213 2.01 129 2.02 182 2.02 111 2.02
 103  0.833  0.500  1.000- 184 2.01 186 2.01 211 2.01 112 2.02 130 2.02 214 2.02
 104  0.832  0.499  0.331- 185 1.93 184 1.99 131 2.03 215 2.03 212 2.03 113 2.04
 105  0.829  0.499  0.669- 132 1.98 186 1.98 213 2.00 185 2.16 114 2.20 216 2.22
 106  0.833  0.834  0.001- 189 1.97 187 2.00 208 2.02 133 2.02 115 2.02 214 2.02
 107  0.833  0.833  0.333- 187 2.01 209 2.01 188 2.01 116 2.02 134 2.02 215 2.02
 108  0.833  0.836  0.667- 216 1.88 210 1.99 117 2.02 188 2.02 189 2.06 135 2.07
 109  0.000  0.167  0.000-  82 2.01  28 2.01   4 2.01  30 2.01   1 2.01 100 2.02
 110  0.001  0.166  0.333-  83 2.00  29 2.01   2 2.01  28 2.01   5 2.02 101 2.02
 111  0.000  0.167  0.666-   6 2.01  29 2.01  84 2.01   3 2.01 102 2.02  30 2.02
 112  0.000  0.500  1.000-  31 2.01  85 2.01   4 2.01   7 2.01 103 2.02  33 2.02
 113  0.001  0.500  0.333-  32 1.99  86 1.99   5 2.01   8 2.01  31 2.03 104 2.04
 114  0.011  0.494  0.668- 167 1.81  87 1.92   6 1.95  33 1.99   9 2.07  32 2.14 105 2.20
 115  0.001  0.833  0.001-  34 2.00  88 2.00   7 2.01   1 2.01  36 2.02 106 2.02
 116  0.000  0.834  0.333-  34 2.01   2 2.01  89 2.01  35 2.02 107 2.02   8 2.02
 117  0.000  0.833  0.666-  90 2.01  35 2.01   3 2.02  36 2.02 108 2.02   9 2.02
 118  0.333  0.167  0.000-  37 2.01  13 2.01  39 2.01  82 2.01  10 2.01  91 2.01
 119  0.333  0.167  0.333-  14 2.01  83 2.01  38 2.01  37 2.02  11 2.02  92 2.02
 120  0.333  0.167  0.666-  15 2.00  12 2.01  84 2.01  93 2.01  38 2.01  39 2.02
 121  0.334  0.500  0.000-  42 2.00  40 2.00  94 2.01  13 2.01  85 2.02  16 2.02
 122  0.332  0.500  0.335-  41 1.99  86 2.00  14 2.01  17 2.02  95 2.04  40 2.04
 123  0.333  0.500  0.665-  87 1.97  41 2.00  15 2.02  18 2.02  96 2.02  42 2.05
 124  0.333  0.833  0.000-  43 2.01  45 2.01  88 2.01  10 2.01  16 2.01  97 2.02
 125  0.333  0.833  0.333-  44 2.01  17 2.01  89 2.01  98 2.01  11 2.01  43 2.01
 126  0.333  0.833  0.666-  99 2.00  18 2.01  90 2.01  44 2.01  12 2.02  45 2.02
 127  0.666  0.167  0.000-  22 2.01  48 2.01  91 2.01  46 2.01 100 2.02  19 2.02
 128  0.666  0.166  0.333-  92 2.01  20 2.01  46 2.01  47 2.01  23 2.01 101 2.02
 129  0.666  0.167  0.667-  21 2.00  24 2.01  93 2.01  48 2.02 102 2.02  47 2.02
 130  0.666  0.499  0.001-  49 2.00  22 2.01  94 2.01  51 2.01 103 2.02  25 2.02
 131  0.665  0.500  0.331-  95 1.99  49 1.99  26 2.01  23 2.02 104 2.03  50 2.03
 132  0.665  0.500  0.667- 105 1.98  96 1.99  24 2.02  51 2.02  27 2.03  50 2.03
 133  0.666  0.834  0.001-  52 2.00  97 2.01  19 2.01  25 2.01 106 2.02  54 2.04
 134  0.667  0.833  0.333-  98 2.01  20 2.01  52 2.01  26 2.02 107 2.02  53 2.02
 135  0.662  0.838  0.665-  99 1.97  21 1.97  53 1.99  54 2.01  27 2.06 108 2.07
 136  0.000  0.000  0.167-  55 2.01  28 2.01   2 2.01  34 2.01   1 2.01  73 2.02
 137  0.000  1.000  0.500-  29 2.01  56 2.01   2 2.01   3 2.01  74 2.02  35 2.02
 138  0.001  0.001  0.833-  30 2.00  57 2.00   3 2.01   1 2.01  36 2.02  75 2.02
 139  0.001  0.333  0.166-  58 2.00  31 2.01   4 2.01  28 2.01   5 2.02  76 2.02
 140  0.001  0.333  0.500-  32 1.99  59 1.99   5 2.01   6 2.01  29 2.03  77 2.04
 141  0.000  0.333  0.834-  30 2.01   4 2.01  60 2.01  33 2.02  78 2.02   6 2.02
 142  0.000  0.666  0.167-   8 2.01  31 2.01  61 2.01   7 2.01  79 2.02  34 2.02
 143  0.011  0.668  0.494- 167 1.81  62 1.92   8 1.95  35 1.99   9 2.07  32 2.14  80 2.20
 144  0.000  0.666  0.833-  63 2.01  33 2.01   7 2.02  36 2.02  81 2.02   9 2.02
 145  0.333  0.000  0.167-  37 2.01  11 2.01  43 2.01  55 2.01  10 2.01  64 2.01
 146  0.334  0.000  0.500-  44 2.00  38 2.00  65 2.01  11 2.01  56 2.02  12 2.02
 147  0.333  0.000  0.833-  39 2.01  45 2.01  57 2.01  10 2.01  12 2.01  66 2.02
 148  0.333  0.333  0.167-  14 2.01  58 2.01  40 2.01  37 2.02  13 2.02  67 2.02
 149  0.332  0.335  0.500-  41 1.99  59 2.00  14 2.01  15 2.02  68 2.04  38 2.04
 150  0.333  0.333  0.833-  42 2.01  15 2.01  60 2.01  69 2.01  13 2.01  39 2.01
 151  0.333  0.666  0.167-  17 2.00  16 2.01  61 2.01  70 2.01  40 2.01  43 2.02
 152  0.333  0.665  0.500-  62 1.97  41 2.00  17 2.02  18 2.02  71 2.02  44 2.05
 153  0.333  0.666  0.833-  72 2.00  18 2.01  63 2.01  42 2.01  16 2.02  45 2.02
 154  0.666  1.000  0.167-  20 2.01  52 2.01  46 2.01  64 2.01  73 2.02  19 2.02
 155  0.666  0.001  0.499-  47 2.00  20 2.01  65 2.01  53 2.01  74 2.02  21 2.02
 156  0.666  0.001  0.834-  48 2.01  66 2.01  19 2.01  21 2.01  75 2.02  54 2.04
 157  0.666  0.333  0.166-  22 2.01  67 2.01  46 2.01  23 2.01  49 2.01  76 2.02
 158  0.665  0.331  0.500-  68 1.99  47 1.99  24 2.01  23 2.02  77 2.03  50 2.03
 159  0.667  0.333  0.833-  69 2.01  48 2.01  22 2.01  78 2.02  24 2.02  51 2.02
 160  0.666  0.667  0.167-  25 2.00  26 2.01  70 2.01  52 2.01  79 2.02  49 2.02
 161  0.665  0.667  0.500-  80 1.98  71 1.99  26 2.02  53 2.02  27 2.03  50 2.03
 162  0.662  0.665  0.838-  72 1.97  25 1.97  51 1.99  54 2.01  27 2.06  81 2.07
 163  0.167  0.167  0.167-  58 2.00  83 2.00  37 2.01  82 2.02  55 2.02  28 2.02
 164  0.167  0.165  0.500-  59 1.96  56 2.00  38 2.02  83 2.02  29 2.02  84 2.02
 165  0.167  0.166  0.833-  60 2.00  84 2.01  57 2.01  39 2.01  82 2.01  30 2.02
 166  0.167  0.500  0.165-  86 1.96  85 2.00  40 2.02  58 2.02  31 2.02  61 2.02
 167  0.080  0.544  0.544-  32 1.55 143 1.81 114 1.81  62 1.98  87 1.98 198 2.33
 168  0.169  0.500  0.836-  87 1.96  85 1.99  42 2.00  60 2.02  63 2.02  33 2.03
 169  0.167  0.833  0.166-  89 2.00  61 2.01  88 2.01  43 2.01  55 2.01  34 2.02
 170  0.169  0.836  0.500-  62 1.96  56 1.99  44 2.00  89 2.02  90 2.02  35 2.03
 171  0.167  0.833  0.833-  90 2.01  63 2.01  45 2.01  88 2.01  57 2.01  36 2.02
 172  0.500  0.167  0.167-  37 2.01  92 2.01  67 2.01  64 2.01  91 2.01  46 2.02
 173  0.499  0.167  0.500-  38 2.00  68 2.00  65 2.01  92 2.01  47 2.02  93 2.02
 174  0.500  0.167  0.833-  69 2.01  39 2.01  91 2.01  93 2.01  48 2.01  66 2.02
 175  0.499  0.500  0.167-  40 2.00  95 2.00  94 2.01  67 2.01  49 2.02  70 2.02
 176  0.501  0.500  0.500-  41 1.95  50 2.00  68 2.02  95 2.02  96 2.03  71 2.03
 177  0.499  0.499  0.833-  42 1.99  96 2.01  69 2.01  51 2.02  94 2.02  72 2.03
 178  0.500  0.833  0.167-  98 2.01  43 2.01  64 2.01  70 2.01  52 2.01  97 2.02
 179  0.499  0.833  0.499-  44 1.99  71 2.01  98 2.01  53 2.02  65 2.02  99 2.03
 180  0.499  0.834  0.834-  45 2.00  66 2.01  97 2.01  72 2.01  99 2.01  54 2.04
 181  0.833  0.166  0.166-  73 2.01 100 2.01 101 2.01  76 2.01  28 2.01  46 2.02
 182  0.833  0.166  0.500-  77 1.99  29 2.01  74 2.01 102 2.02  47 2.02 101 2.02
 183  0.833  0.167  0.833-  75 2.00  78 2.01 102 2.01  30 2.01 100 2.01  48 2.02
 184  0.833  0.500  0.166- 104 1.99  31 2.01 103 2.01  79 2.02  49 2.02  76 2.02
 185  0.828  0.490  0.490-  32 1.75  77 1.93 104 1.93  50 1.95 105 2.16  80 2.16
 186  0.833  0.500  0.833- 105 1.98 103 2.01  78 2.01  33 2.02  81 2.02  51 2.02
 187  0.833  0.833  0.167- 106 2.00 107 2.01  79 2.01  34 2.01  73 2.01  52 2.02
 188  0.833  0.833  0.500-  80 1.98  74 2.01 107 2.01  35 2.02 108 2.02  53 2.02
 189  0.835  0.838  0.838-  75 1.97 106 1.97  36 1.99  54 2.01  81 2.06 108 2.06
 190  0.167  0.000  0.000-  82 2.01  55 2.01  88 2.01  57 2.01  10 2.01   1 2.02
 191  0.167  0.000  0.333-  83 2.00  89 2.01  55 2.01  11 2.01   2 2.01  56 2.02
 192  0.167  0.000  0.667-  84 2.00  90 2.01  12 2.01   3 2.01  57 2.01  56 2.02
 193  0.167  0.333  0.000-  58 2.00  60 2.01  82 2.01  13 2.01   4 2.01  85 2.02
 194  0.167  0.335  0.335-  86 2.00  59 2.00  14 2.01   5 2.02  83 2.04  58 2.04
 195  0.169  0.332  0.666-  15 1.99  59 2.00  84 2.00  87 2.03  60 2.03   6 2.03
 196  0.167  0.667  0.000-  61 2.00  63 2.01  16 2.01   7 2.01  88 2.01  85 2.02
 197  0.169  0.666  0.332-  17 1.99  86 2.00  61 2.00  62 2.03  89 2.03   8 2.03
 198  0.169  0.666  0.666-  18 2.00   9 2.01  62 2.02  87 2.02  90 2.03  63 2.03 167 2.33
 199  0.500  0.000  0.000-  91 2.01  64 2.01  10 2.01  66 2.01  97 2.01  19 2.02
 200  0.500  0.000  0.333-  11 2.01  92 2.01  98 2.01  64 2.01  20 2.01  65 2.01
 201  0.499  0.001  0.667-  93 2.00  12 2.00  65 2.01  99 2.01  66 2.02  21 2.02
 202  0.500  0.333  0.000-  13 2.01  67 2.01  69 2.01  91 2.01  22 2.01  94 2.01
 203  0.499  0.333  0.333-  14 2.01  68 2.01  95 2.01  67 2.01  92 2.01  23 2.03
 204  0.499  0.333  0.666-  15 2.00  96 2.01  93 2.01  24 2.01  68 2.01  69 2.02
 205  0.499  0.667  0.001-  70 2.00  16 2.00  94 2.01  72 2.01  97 2.02  25 2.02
 206  0.499  0.666  0.333-  17 2.00  71 2.01  70 2.01  26 2.01  95 2.01  98 2.02
 207  0.499  0.667  0.667-  27 1.99  18 1.99  96 2.02  71 2.02  72 2.03  99 2.03
 208  0.833  0.001  0.001- 100 2.00  73 2.00   1 2.01  19 2.01  75 2.02 106 2.02
 209  0.833  1.000  0.333- 101 2.01 107 2.01  73 2.01  74 2.01   2 2.01  20 2.02
 210  0.833  0.001  0.667- 108 1.99 102 2.00   3 2.01  74 2.02  21 2.02  75 2.02
 211  0.833  0.333  1.000-  76 2.01  78 2.01 100 2.01 103 2.01   4 2.01  22 2.02
 212  0.834  0.330  0.330-  76 1.99 101 1.99   5 2.00  23 2.01  77 2.03 104 2.03
 213  0.834  0.333  0.666- 105 2.00 102 2.01  78 2.02  24 2.02   6 2.02  77 2.03
 214  0.833  0.667  0.001-  81 1.99  79 2.00   7 2.01 103 2.02  25 2.02 106 2.02
 215  0.834  0.666  0.333-  80 2.00  79 2.01 107 2.02  26 2.02   8 2.02 104 2.03
 216  0.818  0.682  0.682-  81 1.88 108 1.88  27 1.89 105 2.22  80 2.22   9 2.24
 
  LATTYP: Found a simple cubic cell.
 ALAT       =    12.0789003372
  
  Lattice vectors:
  
 A1 = (  12.0789003372,   0.0000000000,   0.0000000000)
 A2 = (   0.0000000000,  12.0789003372,   0.0000000000)
 A3 = (   0.0000000000,   0.0000000000,  12.0789003372)


Analysis of symmetry for initial positions (statically):
=====================================================================
 Subroutine PRICEL returns:
 Original cell was already a primitive cell.
 

 Routine SETGRP: Setting up the symmetry group for a 
 simple cubic supercell.


 Subroutine GETGRP returns: Found  1 space group operations
 (whereof  1 operations were pure point group operations)
 out of a pool of 48 trial point group operations.


The static configuration has the point symmetry C_1 .


Analysis of symmetry for dynamics (positions and initial velocities):
=====================================================================
 Subroutine PRICEL returns:
 Original cell was already a primitive cell.
 

 Routine SETGRP: Setting up the symmetry group for a 
 simple cubic supercell.


 Subroutine GETGRP returns: Found  1 space group operations
 (whereof  1 operations were pure point group operations)
 out of a pool of 48 trial point group operations.


The dynamic configuration has the point symmetry C_1 .


Analysis of structural, dynamic, and magnetic symmetry:
=====================================================================
 Subroutine PRICEL returns:
 Original cell was already a primitive cell.
 

 Routine SETGRP: Setting up the symmetry group for a 
 simple cubic supercell.


 Subroutine GETGRP returns: Found  1 space group operations
 (whereof  1 operations were pure point group operations)
 out of a pool of 48 trial point group operations.


The overall configuration has the point symmetry C_1 .


 Subroutine INISYM returns: Found  1 space group operations
 (whereof  1 operations are pure point group operations),
 and found     1 'primitive' translations


----------------------------------------------------------------------------------------

                                     Primitive cell                                     

  volume of cell :    1762.3095

  direct lattice vectors                    reciprocal lattice vectors
    12.078900337  0.000000000  0.000000000     0.082788993  0.000000000  0.000000000
     0.000000000 12.078900337  0.000000000     0.000000000  0.082788993  0.000000000
     0.000000000  0.000000000 12.078900337     0.000000000  0.000000000  0.082788993

  length of vectors
    12.078900337 12.078900337 12.078900337     0.082788993  0.082788993  0.082788993

  position of ions in fractional coordinates (direct lattice)
     0.999954036  0.999962555  0.999964524
     0.000082040  0.999787856  0.333183319
     0.000090235  0.999821697  0.666618577
     0.000082278  0.333181798  0.999788877
     0.999407739  0.333636902  0.333639832
     0.001142188  0.332699975  0.666406693
     0.000089928  0.666617254  0.999823890
     0.001140953  0.666403732  0.332701117
     0.002370866  0.665442299  0.665443610
     0.333415211  0.999969180  0.999971281
     0.333401144  0.000127402  0.333013470
     0.333191757  0.000283362  0.666766817
     0.333400798  0.333012097  0.000116420
     0.333099039  0.333171221  0.333173179
     0.333930410  0.332345175  0.666818042
     0.333191969  0.666765659  0.000285567
     0.333931672  0.666815937  0.332346680
     0.333792520  0.667016072  0.667017216
     0.666718049  0.999776362  0.999777747
     0.666516493  0.999943828  0.333140565
     0.665727395  0.001025582  0.666947477
     0.666515817  0.333137857  0.000064743
     0.666962347  0.333021098  0.333033508
     0.666220929  0.332882152  0.666344150
     0.665727359  0.666944326  0.001027884
     0.666221074  0.666331224  0.332885363
     0.663197734  0.667619642  0.667621705
     0.999842371  0.166546463  0.166548806
     0.999508941  0.165811544  0.499801641
     0.000106771  0.166515726  0.833443980
     0.999507022  0.499801674  0.165812673
     0.972489402  0.495206872  0.495207576
     0.000468089  0.499500705  0.832232930
     0.000105164  0.833442876  0.166516392
     0.000466164  0.832231494  0.499503205
     0.999105962  0.833374176  0.833375765
     0.333404907  0.166521667  0.166517746
     0.333689116  0.165950592  0.499855226
     0.333549419  0.166355534  0.833543614
     0.333690816  0.499851566  0.165949034
     0.339795031  0.499665237  0.499666668
     0.334284485  0.499627002  0.834976664
     0.333551051  0.833545228  0.166359775
     0.334286522  0.834978033  0.499626071
     0.333259630  0.833628746  0.833630394
     0.666609479  0.166404963  0.166470640
     0.666202684  0.166119817  0.499628606
     0.666482500  0.166737582  0.833573799
     0.666202857  0.499668601  0.166149860
     0.666752546  0.498833554  0.498830625
     0.665786832  0.500790232  0.834285022
     0.666482578  0.833544738  0.166703715
     0.665787141  0.834255997  0.500828679
     0.668327222  0.831828578  0.831830170
     0.166640337  0.000032956  0.166405976
     0.166696518  0.000070962  0.499748900
     0.166581658  0.999913723  0.833570424
     0.166486331  0.332722704  0.166046143
     0.166039017  0.327261409  0.500468482
     0.166865479  0.332338271  0.833874081
     0.167010208  0.667322324  0.165679509
     0.170302282  0.673721289  0.499126277
     0.166644871  0.667087958  0.833936815
     0.500030100  0.000013550  0.166475794
     0.499974013  0.000274845  0.499941105
     0.500215388  0.999785667  0.833422155
     0.499929136  0.333022805  0.166575444
     0.500354718  0.332307883  0.499644795
     0.500077073  0.333055089  0.833599157
     0.499782907  0.666784101  0.166584876
     0.500454159  0.667253811  0.499708327
     0.498828407  0.667019310  0.834564683
     0.833376946  0.000123658  0.166631609
     0.833221165  0.999808526  0.499853679
     0.833242602  0.001063815  0.834356553
     0.833331612  0.332477871  0.165956817
     0.832490507  0.330621751  0.498747814
     0.833449499  0.333150804  0.833489416
     0.833360898  0.666779199  0.166728057
     0.828985926  0.669207091  0.498547267
     0.833201677  0.667434413  0.836331191
     0.166640171  0.166404179  0.000034535
     0.166482487  0.166047273  0.332724510
     0.167010311  0.165678213  0.667323693
     0.166696518  0.499747308  0.000072108
     0.166038717  0.500466871  0.327263208
     0.170302345  0.499124406  0.673723165
     0.166581733  0.833568769  0.999915248
     0.166869144  0.833875511  0.332340090
     0.166644915  0.833935004  0.667090010
     0.500031512  0.166474323  0.000012043
     0.499972186  0.166549853  0.333023528
     0.499782507  0.166581830  0.666786334
     0.499973956  0.499940094  0.000275044
     0.500356601  0.499645680  0.332308626
     0.500452119  0.499708751  0.667254313
     0.500214105  0.833420831  0.999788574
     0.500036159  0.833572928  0.333056875
     0.498827456  0.834563342  0.667019333
     0.833375632  0.166630372  0.000121898
     0.833293905  0.165928817  0.332478363
     0.833361448  0.166725143  0.666781355
     0.833221186  0.499852501  0.999808461
     0.832488692  0.498749233  0.330622033
     0.828987690  0.498548358  0.669207338
     0.833243765  0.834355370  0.001066527
     0.833485405  0.833460522  0.333152590
     0.833202693  0.836329812  0.667434405
     0.000275231  0.166684172  0.000084783
     0.000526218  0.166455767  0.333347895
     0.000403716  0.166624604  0.666352381
     0.000041873  0.499861039  0.999663095
     0.001462980  0.499775591  0.333475487
     0.011276771  0.494098191  0.667828049
     0.000674770  0.833245146  0.000618857
     0.000441765  0.833719692  0.332570544
     0.000499371  0.832910001  0.666156821
     0.333279694  0.166624291  0.000133251
     0.332912791  0.166982347  0.333362154
     0.333377628  0.166504475  0.666420786
     0.333571582  0.499672074  0.000431582
     0.331832500  0.499729863  0.334770490
     0.332936495  0.499607341  0.664928643
     0.333074815  0.833435122  0.000055235
     0.333425206  0.833365203  0.333135957
     0.333094610  0.833425006  0.666419814
     0.666479729  0.166795729  0.000009582
     0.666284317  0.166279308  0.332921693
     0.666420069  0.166809522  0.666727823
     0.666368546  0.499351332  0.000691903
     0.664822933  0.499840463  0.330991755
     0.665487389  0.499754242  0.666803027
     0.666338712  0.833640956  0.000734439
     0.666510946  0.833240551  0.333467083
     0.661532216  0.838107794  0.665411723
     0.000275009  0.000084759  0.166685579
     0.000041985  0.999662912  0.499863042
     0.000675049  0.000617020  0.833246547
     0.000535532  0.333346390  0.166459741
     0.001461749  0.333474309  0.499777078
     0.000431078  0.332569006  0.833723746
     0.000404687  0.666350713  0.166625838
     0.011278256  0.667826477  0.494099919
     0.000499620  0.666155407  0.832911534
     0.333279866  0.000137089  0.166625401
     0.333571485  0.000434128  0.499674164
     0.333074613  0.000052469  0.833436319
     0.332904175  0.333361412  0.166981055
     0.331833793  0.334769672  0.499730846
     0.333435020  0.333134198  0.833364767
     0.333376654  0.666418696  0.166506257
     0.332935371  0.664927824  0.499608711
     0.333094367  0.666419253  0.833426273
     0.666479827  0.999970368  0.166799206
     0.666368675  0.000662655  0.499353768
     0.666338692  0.000741470  0.833645441
     0.666283334  0.332913350  0.166338435
     0.664823100  0.330983460  0.499846293
     0.666511858  0.333466017  0.833287367
     0.666419977  0.666729729  0.166807051
     0.665487341  0.666795144  0.499762496
     0.661532099  0.665400646  0.838112358
     0.166734994  0.166857118  0.166857697
     0.166823269  0.165257927  0.499687048
     0.166967231  0.166489491  0.833432503
     0.166823416  0.499685045  0.165259261
     0.080359805  0.544255742  0.544256592
     0.168628724  0.499688673  0.835671689
     0.166967424  0.833431143  0.166491934
     0.168628947  0.835670187  0.499689763
     0.166626732  0.833217846  0.833219488
     0.499698512  0.166645579  0.166649044
     0.499164518  0.166653823  0.499710563
     0.499797162  0.166837585  0.833440719
     0.499161886  0.499708420  0.166655227
     0.501144402  0.499599611  0.499603973
     0.498957879  0.499299812  0.833393708
     0.499795175  0.833439047  0.166836956
     0.498955260  0.833391979  0.499303677
     0.499044222  0.833608663  0.833610289
     0.833432876  0.166176582  0.166180454
     0.833457213  0.166115961  0.499743396
     0.833389195  0.166977216  0.833373019
     0.833459458  0.499741190  0.166117329
     0.827518619  0.490306888  0.490311173
     0.833371430  0.499889047  0.833465655
     0.833391084  0.833371390  0.166976147
     0.833373909  0.833464022  0.499892924
     0.834643137  0.838137088  0.838138558
     0.166785507  0.000077919  0.000079647
     0.166890509  0.000084196  0.332839030
     0.166796389  0.000025432  0.666801331
     0.166890503  0.332837359  0.000083757
     0.166660360  0.334822646  0.334822955
     0.169309821  0.331611797  0.665742028
     0.166796371  0.666799725  0.000027314
     0.169310546  0.665741470  0.331613337
     0.168630410  0.665773006  0.665774550
     0.499799594  0.000120234  0.000120435
     0.499735614  0.000105950  0.333132234
     0.498579927  0.001316365  0.666575458
     0.499736470  0.333130802  0.000133320
     0.499237267  0.333232429  0.333240108
     0.499441716  0.333190493  0.666440735
     0.498579905  0.666573787  0.001315721
     0.499434223  0.666434543  0.333191978
     0.498708227  0.666525601  0.666528254
     0.833461147  0.001213424  0.001213516
     0.833398113  0.999900236  0.333171141
     0.833342864  0.000826924  0.666711574
     0.833397101  0.333169762  0.999930628
     0.833556366  0.330400371  0.330408850
     0.833532010  0.333395199  0.666442673
     0.833342847  0.666709912  0.000825984
     0.833538848  0.666436099  0.333396403
     0.818170595  0.681760868  0.681763628

  ion indices of the primitive-cell ions
   primitive index   ion index
                 1           1
                 2           2
                 3           3
                 4           4
                 5           5
                 6           6
                 7           7
                 8           8
                 9           9
                10          10
                11          11
                12          12
                13          13
                14          14
                15          15
                16          16
                17          17
                18          18
                19          19
                20          20
                21          21
                22          22
                23          23
                24          24
                25          25
                26          26
                27          27
                28          28
                29          29
                30          30
                31          31
                32          32
                33          33
                34          34
                35          35
                36          36
                37          37
                38          38
                39          39
                40          40
                41          41
                42          42
                43          43
                44          44
                45          45
                46          46
                47          47
                48          48
                49          49
                50          50
                51          51
                52          52
                53          53
                54          54
                55          55
                56          56
                57          57
                58          58
                59          59
                60          60
                61          61
                62          62
                63          63
                64          64
                65          65
                66          66
                67          67
                68          68
                69          69
                70          70
                71          71
                72          72
                73          73
                74          74
                75          75
                76          76
                77          77
                78          78
                79          79
                80          80
                81          81
                82          82
                83          83
                84          84
                85          85
                86          86
                87          87
                88          88
                89          89
                90          90
                91          91
                92          92
                93          93
                94          94
                95          95
                96          96
                97          97
                98          98
                99          99
               100         100
               101         101
               102         102
               103         103
               104         104
               105         105
               106         106
               107         107
               108         108
               109         109
               110         110
               111         111
               112         112
               113         113
               114         114
               115         115
               116         116
               117         117
               118         118
               119         119
               120         120
               121         121
               122         122
               123         123
               124         124
               125         125
               126         126
               127         127
               128         128
               129         129
               130         130
               131         131
               132         132
               133         133
               134         134
               135         135
               136         136
               137         137
               138         138
               139         139
               140         140
               141         141
               142         142
               143         143
               144         144
               145         145
               146         146
               147         147
               148         148
               149         149
               150         150
               151         151
               152         152
               153         153
               154         154
               155         155
               156         156
               157         157
               158         158
               159         159
               160         160
               161         161
               162         162
               163         163
               164         164
               165         165
               166         166
               167         167
               168         168
               169         169
               170         170
               171         171
               172         172
               173         173
               174         174
               175         175
               176         176
               177         177
               178         178
               179         179
               180         180
               181         181
               182         182
               183         183
               184         184
               185         185
               186         186
               187         187
               188         188
               189         189
               190         190
               191         191
               192         192
               193         193
               194         194
               195         195
               196         196
               197         197
               198         198
               199         199
               200         200
               201         201
               202         202
               203         203
               204         204
               205         205
               206         206
               207         207
               208         208
               209         209
               210         210
               211         211
               212         212
               213         213
               214         214
               215         215
               216         216

----------------------------------------------------------------------------------------

 
 
 KPOINTS: Gamma-point only                        

Automatic generation of k-mesh.
 Grid dimensions read from file:
 generate k-points for:    1    1    1

 Generating k-lattice:

  Cartesian coordinates                     Fractional coordinates (reciprocal lattice)
     0.082788993  0.000000000  0.000000000     1.000000000  0.000000000  0.000000000
     0.000000000  0.082788993  0.000000000     0.000000000  1.000000000  0.000000000
     0.000000000  0.000000000  0.082788993     0.000000000  0.000000000  1.000000000

  Length of vectors
     0.082788993  0.082788993  0.082788993

  Shift w.r.t. Gamma in fractional coordinates (k-lattice)
     0.000000000  0.000000000  0.000000000

 
 Subroutine IBZKPT returns following result:
 ===========================================
 
 Found      1 irreducible k-points:
 
 Following reciprocal coordinates:
            Coordinates               Weight
  0.000000  0.000000  0.000000      1.000000
 
 Following cartesian coordinates:
            Coordinates               Weight
  0.000000  0.000000  0.000000      1.000000
 


--------------------------------------------------------------------------------------------------------




 Dimension of arrays:
   k-points           NKPTS =      1   k-points in BZ     NKDIM =      1   number of bands    NBANDS=    757
   number of dos      NEDOS =    301   number of ions     NIONS =    216
   non local maximal  LDIM  =      4   non local SUM 2l+1 LMDIM =      8
   total plane-waves  NPLWV = 512000
   max r-space proj   IRMAX =      1   max aug-charges    IRDMAX=   3893
   dimension x,y,z NGX =    80 NGY =   80 NGZ =   80
   dimension x,y,z NGXF=   160 NGYF=  160 NGZF=  160
   support grid    NGXF=   160 NGYF=  160 NGZF=  160
   ions per type =             108 108
   NGX,Y,Z   is equivalent  to a cutoff of  11.01, 11.01, 11.01 a.u.
   NGXF,Y,Z  is equivalent  to a cutoff of  22.02, 22.02, 22.02 a.u.

 SYSTEM =  Si                                      
 POSCAR =  Li   F                                  

 Startparameter for this run:
   NWRITE =      2    write-flag & timer
   PREC   = accura    normal or accurate (medium, high low for compatibility)
   ISTART =      1    job   : 0-new  1-cont  2-samecut
   ICHARG =      2    charge: 1-file 2-atom 10-const
   ISPIN  =      2    spin polarized calculation?
   LNONCOLLINEAR =      F non collinear calculations
   LSORBIT =      F    spin-orbit coupling
   INIWAV =      1    electr: 0-lowe 1-rand  2-diag
   LASPH  =      F    aspherical Exc in radial PAW
 Electronic Relaxation 1
   ENCUT  =  400.0 eV  29.40 Ry    5.42 a.u.  19.70 19.70 19.70*2*pi/ulx,y,z
   ENINI  =  400.0     initial cutoff
   ENAUG  =  628.9 eV  augmentation charge cutoff
   NELM   =     20;   NELMIN=  2; NELMDL=  0     # of ELM steps 
   EDIFF  = 0.1E-09   stopping-criterion for ELM
   LREAL  =      F    real-space projection
   NLSPLINE    = F    spline interpolate recip. space projectors
   LCOMPAT=      F    compatible to vasp.4.4
   GGA_COMPAT  = T    GGA compatible to vasp.4.4-vasp.4.6
   LMAXPAW     = -100 max onsite density
   LMAXMIX     =    2 max onsite mixed and CHGCAR
   VOSKOWN=      0    Vosko Wilk Nusair interpolation
   ROPT   =    0.00000   0.00000
 Ionic relaxation
   EDIFFG = -.1E-01   stopping-criterion for IOM
   NSW    =    500    number of steps for IOM
   NBLOCK =      1;   KBLOCK =    500    inner block; outer block 
   IBRION =      3    ionic relax: 0-MD 1-quasi-New 2-CG
   NFREE  =      0    steps in history (QN), initial steepest desc. (CG)
   ISIF   =      0    stress and relaxation
   IWAVPR =     11    prediction:  0-non 1-charg 2-wave 3-comb
   ISYM   =      2    0-nonsym 1-usesym 2-fastsym
   LCORR  =      T    Harris-Foulkes like correction to forces

   POTIM  = 0.0000    time-step for ionic-motion
   TEIN   =    0.0    initial temperature
   TEBEG  =    0.0;   TEEND  =   0.0 temperature during run
   SMASS  =  -3.00    Nose mass-parameter (am)
   estimated Nose-frequenzy (Omega)   =  0.10E-29 period in steps = 0.00E+00 mass=  -0.333E-26a.u.
   SCALEE = 1.0000    scale energy and forces
   NPACO  =    256;   APACO  = 10.0  distance and # of slots for P.C.
   PSTRESS=    0.0 pullay stress

  Mass of Ions in am
   POMASS =  19.00  7.01
  Ionic Valenz
   ZVAL   =   7.00  3.00
  Atomic Wigner-Seitz radii
   RWIGS  =  -1.00 -1.00
  virtual crystal weights 
   VCA    =   1.00  1.00
   NELECT =    1080.0000    total number of electrons
   NUPDOWN=      -1.0000    fix difference up-down

 DOS related values:
   EMIN   =  10.00;   EMAX   =-10.00  energy-range for DOS
   EFERMI =   0.00;   METHOD = LEGACY      
   ISMEAR =     0;   SIGMA  =   0.01  broadening in eV -4-tet -1-fermi 0-gaus

 Electronic relaxation 2 (details)
   IALGO  =     38    algorithm
   LDIAG  =      T    sub-space diagonalisation (order eigenvalues)
   LSUBROT=      F    optimize rotation matrix (better conditioning)
   TURBO    =      0    0=normal 1=particle mesh
   IRESTART =      0    0=no restart 2=restart with 2 vectors
   NREBOOT  =      0    no. of reboots
   NMIN     =      0    reboot dimension
   EREF     =   0.00    reference energy to select bands
   IMIX   =      4    mixing-type and parameters
     AMIX     =   0.40;   BMIX     =  1.00
     AMIX_MAG =   1.60;   BMIX_MAG =  1.00
     AMIN     =   0.10
     WC   =   100.;   INIMIX=   1;  MIXPRE=   1;  MAXMIX= -45

 Intra band minimization:
   WEIMIN = 0.0010     energy-eigenvalue tresh-hold
   EBREAK =  0.33E-13  absolut break condition
   DEPER  =   0.30     relativ break condition  

   TIME   =   0.40     timestep for ELM

  volume/ion in A,a.u.               =       8.16        55.06
  Fermi-wavevector in a.u.,A,eV,Ry     =   1.390557  2.627771 26.308875  1.933648
  Thomas-Fermi vector in A             =   2.514480
 
 Write flags
   LWAVE        =      T    write WAVECAR
   LDOWNSAMPLE  =      F    k-point downsampling of WAVECAR
   LCHARG       =      T    write CHGCAR
   LVTOT        =      F    write LOCPOT, total local potential
   LVHAR        =      F    write LOCPOT, Hartree potential only
   LELF         =      F    write electronic localiz. function (ELF)
   LORBIT       =      0    0 simple, 1 ext, 2 COOP (PROOUT), +10 PAW based schemes


 Dipole corrections
   LMONO  =      F    monopole corrections only (constant potential shift)
   LDIPOL =      F    correct potential (dipole corrections)
   IDIPOL =      0    1-x, 2-y, 3-z, 4-all directions 
   EPSILON=  1.0000000 bulk dielectric constant

 Exchange correlation treatment:
   GGA     =    --    GGA type
   LEXCH   =     8    internal setting for exchange type
   LIBXC   =     F    Libxc                    
   VOSKOWN =     0    Vosko Wilk Nusair interpolation
   LHFCALC =     F    Hartree Fock is set to
   LHFONE  =     F    Hartree Fock one center treatment
   AEXX    =    0.0000 exact exchange contribution

 Linear response parameters
   LEPSILON=     F    determine dielectric tensor
   LRPA    =     F    only Hartree local field effects (RPA)
   LNABLA  =     F    use nabla operator in PAW spheres
   LVEL    =     F    velocity operator in full k-point grid
   CSHIFT  =0.1000    complex shift for real part using Kramers Kronig
   OMEGAMAX=  -1.0    maximum frequency
   DEG_THRESHOLD= 0.2000000E-02 threshold for treating states as degnerate
   RTIME   =   -0.100 relaxation time in fs
  (WPLASMAI=    0.000 imaginary part of plasma frequency in eV, 0.658/RTIME)
   DFIELD  = 0.0000000 0.0000000 0.0000000 field for delta impulse in time
 
  Optional k-point grid parameters
   LKPOINTS_OPT  =     F    use optional k-point grid
   KPOINTS_OPT_MODE=     1    mode for optional k-point grid
 
 Orbital magnetization related:
   ORBITALMAG=     F  switch on orbital magnetization
   LCHIMAG   =     F  perturbation theory with respect to B field
   DQ        =  0.001000  dq finite difference perturbation B field
   LLRAUG    =     F  two centre corrections for induced B field
   LBONE     =     F  B-component reconstruction in AE one-centre
   LVGVCALC  =     T  calculate vGv susceptibility
   LVGVAPPL  =     F  apply vGv susceptibility instead of pGv for G=0

 Random number generation:
   RANDOM_GENERATOR = DEFAULT
   PCG_SEED         = not used


--------------------------------------------------------------------------------------------------------


 quickmin algorithm: (dynamic with friction)
 charge density and potential will be updated during run
 spin polarized calculation
 Variant of blocked Davidson
 Davidson routine will perform the subspace rotation
 perform sub-space diagonalisation
    after iterative eigenvector-optimisation
 modified Broyden-mixing scheme, WC =      100.0
 initial mixing is a Kerker type mixing with AMIX =  0.4000 and BMIX =      1.0000
 Hartree-type preconditioning will be used
 using additional bands           217
 reciprocal scheme for non local part
 calculate Harris-corrections to forces 
   (improved forces if not selfconsistent)
 use gradient corrections 
 use of overlap-Matrix (Vanderbilt PP)
 Gauss-broadening in eV      SIGMA  =   0.01


--------------------------------------------------------------------------------------------------------


  energy-cutoff  :      400.00
  volume of cell :     1762.31
      direct lattice vectors                 reciprocal lattice vectors
    12.078900337  0.000000000  0.000000000     0.082788993  0.000000000  0.000000000
     0.000000000 12.078900337  0.000000000     0.000000000  0.082788993  0.000000000
     0.000000000  0.000000000 12.078900337     0.000000000  0.000000000  0.082788993

  length of vectors
    12.078900337 12.078900337 12.078900337     0.082788993  0.082788993  0.082788993


 
 old parameters found on file WAVECAR:
  energy-cutoff  :      400.00
  volume of cell :     1762.31
      direct lattice vectors                 reciprocal lattice vectors
    12.078900337  0.000000000  0.000000000     0.082788993  0.000000000  0.000000000
     0.000000000 12.078900337  0.000000000     0.000000000  0.082788993  0.000000000
     0.000000000  0.000000000 12.078900337     0.000000000  0.000000000  0.082788993

  length of vectors

 
 k-points in units of 2pi/SCALE and weight: Gamma-point only                        
   0.00000000  0.00000000  0.00000000       1.000
 
 k-points in reciprocal lattice and weights: Gamma-point only                        
   0.00000000  0.00000000  0.00000000       1.000
 
 position of ions in fractional coordinates (direct lattice) 
   0.99995404  0.99996256  0.99996452
   0.00008204  0.99978786  0.33318332
   0.00009023  0.99982170  0.66661858
   0.00008228  0.33318180  0.99978888
   0.99940774  0.33363690  0.33363983
   0.00114219  0.33269998  0.66640669
   0.00008993  0.66661725  0.99982389
   0.00114095  0.66640373  0.33270112
   0.00237087  0.66544230  0.66544361
   0.33341521  0.99996918  0.99997128
   0.33340114  0.00012740  0.33301347
   0.33319176  0.00028336  0.66676682
   0.33340080  0.33301210  0.00011642
   0.33309904  0.33317122  0.33317318
   0.33393041  0.33234518  0.66681804
   0.33319197  0.66676566  0.00028557
   0.33393167  0.66681594  0.33234668
   0.33379252  0.66701607  0.66701722
   0.66671805  0.99977636  0.99977775
   0.66651649  0.99994383  0.33314056
   0.66572739  0.00102558  0.66694748
   0.66651582  0.33313786  0.00006474
   0.66696235  0.33302110  0.33303351
   0.66622093  0.33288215  0.66634415
   0.66572736  0.66694433  0.00102788
   0.66622107  0.66633122  0.33288536
   0.66319773  0.66761964  0.66762170
   0.99984237  0.16654646  0.16654881
   0.99950894  0.16581154  0.49980164
   0.00010677  0.16651573  0.83344398
   0.99950702  0.49980167  0.16581267
   0.97248940  0.49520687  0.49520758
   0.00046809  0.49950070  0.83223293
   0.00010516  0.83344288  0.16651639
   0.00046616  0.83223149  0.49950320
   0.99910596  0.83337418  0.83337577
   0.33340491  0.16652167  0.16651775
   0.33368912  0.16595059  0.49985523
   0.33354942  0.16635553  0.83354361
   0.33369082  0.49985157  0.16594903
   0.33979503  0.49966524  0.49966667
   0.33428449  0.49962700  0.83497666
   0.33355105  0.83354523  0.16635978
   0.33428652  0.83497803  0.49962607
   0.33325963  0.83362875  0.83363039
   0.66660948  0.16640496  0.16647064
   0.66620268  0.16611982  0.49962861
   0.66648250  0.16673758  0.83357380
   0.66620286  0.49966860  0.16614986
   0.66675255  0.49883355  0.49883063
   0.66578683  0.50079023  0.83428502
   0.66648258  0.83354474  0.16670372
   0.66578714  0.83425600  0.50082868
   0.66832722  0.83182858  0.83183017
   0.16664034  0.00003296  0.16640598
   0.16669652  0.00007096  0.49974890
   0.16658166  0.99991372  0.83357042
   0.16648633  0.33272270  0.16604614
   0.16603902  0.32726141  0.50046848
   0.16686548  0.33233827  0.83387408
   0.16701021  0.66732232  0.16567951
   0.17030228  0.67372129  0.49912628
   0.16664487  0.66708796  0.83393681
   0.50003010  0.00001355  0.16647579
   0.49997401  0.00027485  0.49994111
   0.50021539  0.99978567  0.83342216
   0.49992914  0.33302280  0.16657544
   0.50035472  0.33230788  0.49964479
   0.50007707  0.33305509  0.83359916
   0.49978291  0.66678410  0.16658488
   0.50045416  0.66725381  0.49970833
   0.49882841  0.66701931  0.83456468
   0.83337695  0.00012366  0.16663161
   0.83322117  0.99980853  0.49985368
   0.83324260  0.00106382  0.83435655
   0.83333161  0.33247787  0.16595682
   0.83249051  0.33062175  0.49874781
   0.83344950  0.33315080  0.83348942
   0.83336090  0.66677920  0.16672806
   0.82898593  0.66920709  0.49854727
   0.83320168  0.66743441  0.83633119
   0.16664017  0.16640418  0.00003454
   0.16648249  0.16604727  0.33272451
   0.16701031  0.16567821  0.66732369
   0.16669652  0.49974731  0.00007211
   0.16603872  0.50046687  0.32726321
   0.17030235  0.49912441  0.67372316
   0.16658173  0.83356877  0.99991525
   0.16686914  0.83387551  0.33234009
   0.16664492  0.83393500  0.66709001
   0.50003151  0.16647432  0.00001204
   0.49997219  0.16654985  0.33302353
   0.49978251  0.16658183  0.66678633
   0.49997396  0.49994009  0.00027504
   0.50035660  0.49964568  0.33230863
   0.50045212  0.49970875  0.66725431
   0.50021410  0.83342083  0.99978857
   0.50003616  0.83357293  0.33305688
   0.49882746  0.83456334  0.66701933
   0.83337563  0.16663037  0.00012190
   0.83329391  0.16592882  0.33247836
   0.83336145  0.16672514  0.66678135
   0.83322119  0.49985250  0.99980846
   0.83248869  0.49874923  0.33062203
   0.82898769  0.49854836  0.66920734
   0.83324376  0.83435537  0.00106653
   0.83348540  0.83346052  0.33315259
   0.83320269  0.83632981  0.66743441
   0.00027523  0.16668417  0.00008478
   0.00052622  0.16645577  0.33334789
   0.00040372  0.16662460  0.66635238
   0.00004187  0.49986104  0.99966309
   0.00146298  0.49977559  0.33347549
   0.01127677  0.49409819  0.66782805
   0.00067477  0.83324515  0.00061886
   0.00044177  0.83371969  0.33257054
   0.00049937  0.83291000  0.66615682
   0.33327969  0.16662429  0.00013325
   0.33291279  0.16698235  0.33336215
   0.33337763  0.16650447  0.66642079
   0.33357158  0.49967207  0.00043158
   0.33183250  0.49972986  0.33477049
   0.33293649  0.49960734  0.66492864
   0.33307481  0.83343512  0.00005523
   0.33342521  0.83336520  0.33313596
   0.33309461  0.83342501  0.66641981
   0.66647973  0.16679573  0.00000958
   0.66628432  0.16627931  0.33292169
   0.66642007  0.16680952  0.66672782
   0.66636855  0.49935133  0.00069190
   0.66482293  0.49984046  0.33099175
   0.66548739  0.49975424  0.66680303
   0.66633871  0.83364096  0.00073444
   0.66651095  0.83324055  0.33346708
   0.66153222  0.83810779  0.66541172
   0.00027501  0.00008476  0.16668558
   0.00004199  0.99966291  0.49986304
   0.00067505  0.00061702  0.83324655
   0.00053553  0.33334639  0.16645974
   0.00146175  0.33347431  0.49977708
   0.00043108  0.33256901  0.83372375
   0.00040469  0.66635071  0.16662584
   0.01127826  0.66782648  0.49409992
   0.00049962  0.66615541  0.83291153
   0.33327987  0.00013709  0.16662540
   0.33357148  0.00043413  0.49967416
   0.33307461  0.00005247  0.83343632
   0.33290418  0.33336141  0.16698106
   0.33183379  0.33476967  0.49973085
   0.33343502  0.33313420  0.83336477
   0.33337665  0.66641870  0.16650626
   0.33293537  0.66492782  0.49960871
   0.33309437  0.66641925  0.83342627
   0.66647983  0.99997037  0.16679921
   0.66636867  0.00066265  0.49935377
   0.66633869  0.00074147  0.83364544
   0.66628333  0.33291335  0.16633844
   0.66482310  0.33098346  0.49984629
   0.66651186  0.33346602  0.83328737
   0.66641998  0.66672973  0.16680705
   0.66548734  0.66679514  0.49976250
   0.66153210  0.66540065  0.83811236
   0.16673499  0.16685712  0.16685770
   0.16682327  0.16525793  0.49968705
   0.16696723  0.16648949  0.83343250
   0.16682342  0.49968505  0.16525926
   0.08035980  0.54425574  0.54425659
   0.16862872  0.49968867  0.83567169
   0.16696742  0.83343114  0.16649193
   0.16862895  0.83567019  0.49968976
   0.16662673  0.83321785  0.83321949
   0.49969851  0.16664558  0.16664904
   0.49916452  0.16665382  0.49971056
   0.49979716  0.16683758  0.83344072
   0.49916189  0.49970842  0.16665523
   0.50114440  0.49959961  0.49960397
   0.49895788  0.49929981  0.83339371
   0.49979517  0.83343905  0.16683696
   0.49895526  0.83339198  0.49930368
   0.49904422  0.83360866  0.83361029
   0.83343288  0.16617658  0.16618045
   0.83345721  0.16611596  0.49974340
   0.83338919  0.16697722  0.83337302
   0.83345946  0.49974119  0.16611733
   0.82751862  0.49030689  0.49031117
   0.83337143  0.49988905  0.83346565
   0.83339108  0.83337139  0.16697615
   0.83337391  0.83346402  0.49989292
   0.83464314  0.83813709  0.83813856
   0.16678551  0.00007792  0.00007965
   0.16689051  0.00008420  0.33283903
   0.16679639  0.00002543  0.66680133
   0.16689050  0.33283736  0.00008376
   0.16666036  0.33482265  0.33482295
   0.16930982  0.33161180  0.66574203
   0.16679637  0.66679973  0.00002731
   0.16931055  0.66574147  0.33161334
   0.16863041  0.66577301  0.66577455
   0.49979959  0.00012023  0.00012043
   0.49973561  0.00010595  0.33313223
   0.49857993  0.00131636  0.66657546
   0.49973647  0.33313080  0.00013332
   0.49923727  0.33323243  0.33324011
   0.49944172  0.33319049  0.66644074
   0.49857990  0.66657379  0.00131572
   0.49943422  0.66643454  0.33319198
   0.49870823  0.66652560  0.66652825
   0.83346115  0.00121342  0.00121352
   0.83339811  0.99990024  0.33317114
   0.83334286  0.00082692  0.66671157
   0.83339710  0.33316976  0.99993063
   0.83355637  0.33040037  0.33040885
   0.83353201  0.33339520  0.66644267
   0.83334285  0.66670991  0.00082598
   0.83353885  0.66643610  0.33339640
   0.81817060  0.68176087  0.68176363
 
 position of ions in cartesian coordinates  (Angst):
  12.07834514 12.07844805 12.07847183
   0.00099095 12.07633787  4.02448810
   0.00108994 12.07674664  8.05201936
   0.00099382  4.02446974 12.07635021
  12.07174647  4.02996689  4.03000227
   0.01379638  4.01864984  8.04946003
   0.00108623  8.05200338 12.07677312
   0.01378146  8.04942426  4.01866364
   0.02863745  8.03781121  8.03782705
   4.02728910 12.07852806 12.07855344
   4.02711919  0.00153888  4.02243651
   4.02459003  0.00342270  8.05380994
   4.02711501  4.02241993  0.00140622
   4.02347010  4.02434198  4.02436562
   4.03351214  4.01436425  8.05442867
   4.02459259  8.05379594  0.00344933
   4.03352739  8.05440325  4.01438243
   4.03184659  8.05682065  8.05683448
   8.05322087 12.07619904 12.07621577
   8.05078629 12.07822184  4.02397168
   8.04125485  0.01238790  8.05599211
   8.05077813  4.02393897  0.00078203
   8.05617172  4.02252865  4.02267855
   8.04721620  4.02085034  8.04870458
   8.04125443  8.05595405  0.01241571
   8.04721796  8.04854845  4.02088912
   8.01069933  8.06411112  8.06413604
  12.07699635  2.01169813  2.01172643
  12.07296888  2.00282111  6.03705421
   0.00128968  2.01132686 10.06708677
  12.07294571  6.03705460  2.00283475
  11.74660257  5.98155445  5.98156295
   0.00565400  6.03341923 10.05245862
   0.00127027 10.06707344  2.01133491
   0.00563075 10.05244127  6.03344943
  12.06810135 10.06624362 10.06626281
   4.02716465  2.01139862  2.01135126
   4.03059757  2.00450066  6.03770146
   4.02891019  2.00939192 10.06829023
   4.03061811  6.03765725  2.00448184
   4.10435032  6.03540660  6.03542389
   4.03778898  6.03494477 10.08559990
   4.02892991 10.06830974  2.00944315
   4.03781359 10.08561645  6.03493352
   4.02540986 10.06931855 10.06933845
   8.05190947  2.00998896  2.01078226
   8.04699583  2.00654472  6.03496414
   8.05037569  2.01400664 10.06865484
   8.04699791  6.03544724  2.00690760
   8.05363755  6.02536078  6.02532541
   8.04197279  6.04899530 10.07724563
   8.05037663 10.06830381  2.01359756
   8.04197653 10.07689505  6.04945970
   8.07265791 10.04757449 10.04759372
   2.01283202  0.00039808  2.01000120
   2.01351063  0.00085714  6.03641716
   2.01212325 12.07785820 10.06861407
   2.01097180  4.01892439  2.00565481
   2.00556874  3.95295794  6.04510892
   2.01555149  4.01428085 10.07228192
   2.01729966  8.06051984  2.00122628
   2.05706429  8.13781230  6.02889656
   2.01288679  8.05768896 10.07303967
   6.03981375  0.00016366  2.01084453
   6.03913627  0.00331983  6.03873878
   6.04205182 12.07631144 10.06682315
   6.03859420  4.02254927  2.01204818
   6.04373478  4.01391380  6.03515968
   6.04038112  4.02293922 10.06896113
   6.03682793  8.05401870  2.01216212
   6.04493591  8.05969228  6.03592707
   6.02529861  8.05685976 10.08062363
  10.06627707  0.00149365  2.01272660
  10.06439542 12.07658754  6.03768277
  10.06465434  0.01284972 10.07810965
  10.06572949  4.01596707  2.00457585
  10.05556986  3.99354718  6.02432514
  10.06715343  4.02409535 10.06763559
  10.06608323  8.05395949  2.01389158
  10.01323839  8.08328576  6.02190275
  10.06416001  8.06187375 10.10196111
   2.01283002  2.00997949  0.00041715
   2.01092537  2.00566846  4.01894619
   2.01730090  2.00121063  8.06053639
   2.01351062  6.03639793  0.00087099
   2.00556511  6.04508946  3.95297967
   2.05706506  6.02887395  8.13783496
   2.01212415 10.06859409 12.07787662
   2.01559576 10.07229919  4.01430282
   2.01288733 10.07301780  8.05771374
   6.03983079  2.01082675  0.00014547
   6.03911420  2.01173908  4.02255800
   6.03682310  2.01212532  8.05404567
   6.03913559  6.03872658  0.00332223
   6.04375751  6.03517038  4.01392278
   6.04491127  6.03593220  8.05969835
   6.04203632 10.06680716 12.07634654
   6.03988693 10.06864433  4.02296080
   6.02528713 10.08060743  8.05686004
  10.06626120  2.01271166  0.00147239
  10.06527403  2.00423765  4.01597301
  10.06608987  2.01385638  8.05398553
  10.06439566  6.03766855 12.07658675
  10.05554794  6.02434227  3.99355058
  10.01325969  6.02191593  8.08328874
  10.06466839 10.07809537  0.01288248
  10.06758714 10.06728658  4.02411693
  10.06417229 10.10194444  8.06187366
   0.00332449  2.01336150  0.00102409
   0.00635613  2.01060262  4.02647600
   0.00487645  2.01264198  8.04880400
   0.00050578  6.03777167 12.07483089
   0.01767119  6.03673955  4.02801717
   0.13621100  5.96816280  8.06662845
   0.00815048 10.06468508  0.00747511
   0.00533604 10.07041707  4.01708645
   0.00603185 10.06063689  8.04644185
   4.02565221  2.01263821  0.00160952
   4.02122042  2.01696313  4.02664823
   4.02683514  2.01119095  8.04963026
   4.02917789  6.03548918  0.00521304
   4.00817170  6.03618722  4.04365939
   4.02150674  6.03470728  8.03160681
   4.02317749 10.06697978  0.00066718
   4.02740983 10.06613524  4.02391603
   4.02341660 10.06685759  8.04961851
   8.05034222  2.01470898  0.00011574
   8.04798186  2.00847119  4.02132795
   8.04962160  2.01487560  8.05333893
   8.04899926  6.03161498  0.00835743
   8.03032996  6.03752314  3.99801642
   8.03835584  6.03648168  8.05424731
   8.04863890 10.06946602  0.00887122
   8.05071929 10.06462958  4.02791566
   7.99058171 10.12342051  8.03744188
   0.00332180  0.00102380  2.01337850
   0.00050714 12.07482868  6.03779586
   0.00815385  0.00745292 10.06470199
   0.00646863  4.02645783  2.01065063
   0.01765632  4.02800295  6.03675752
   0.00520694  4.01706787 10.07046603
   0.00488817  8.04878385  2.01265689
   0.13622893  8.06660946  5.96818368
   0.00603486  8.04642478 10.06065540
   4.02565428  0.00165588  2.01265161
   4.02917672  0.00524379  6.03551443
   4.02317506  0.00063377 10.06699423
   4.02111636  4.02663927  2.01694753
   4.00818731  4.04364950  6.03619909
   4.02752837  4.02389478 10.06612997
   4.02682338  8.04960502  2.01121248
   4.02149317  8.03159692  6.03472383
   4.02341366  8.04961173 10.06687290
   8.05034341 12.07854242  2.01475099
   8.04900081  0.00800414  6.03164440
   8.04863866  0.00895614 10.06952019
   8.04796998  4.02122717  2.00918538
   8.03033197  3.99791623  6.03759356
   8.05073030  4.02790278 10.06519506
   8.04962048  8.05336195  2.01484574
   8.03835527  8.05415209  6.03658138
   7.99058030  8.03730809 10.12347564
   2.01397538  2.01545050  2.01545749
   2.01504164  1.99613404  6.03567006
   2.01678055  2.01100997 10.06694814
   2.01504342  6.03564586  1.99615014
   0.97065807  6.57401086  6.57402113
   2.03684956  6.03568968 10.09399505
   2.01678287 10.06693171  2.01103948
   2.03685224 10.09397691  6.03570284
   2.01266769 10.06435532 10.06437516
   6.03580852  2.01289534  2.01293719
   6.02935846  2.01299491  6.03595409
   6.03700011  2.01521456 10.06704738
   6.02932667  6.03592820  2.01301188
   6.05327329  6.03461391  6.03466660
   6.02686249  6.03099267 10.06647955
   6.03697610 10.06702718  2.01520696
   6.02683086 10.06645865  6.03103935
   6.02790543 10.06907596 10.06909560
  10.06695264  2.00723037  2.00727714
  10.06724662  2.00649814  6.03635067
  10.06642502  2.01690115 10.06622964
  10.06727373  6.03632402  2.00651466
   9.99551492  5.92236804  5.92241980
  10.06621045  6.03810998 10.06734858
  10.06644785 10.06620997  2.01688824
  10.06624039 10.06732885  6.03815680
  10.08157127 10.12377435 10.12379212
   2.01458551  0.00094117  0.00096205
   2.01585383  0.00101700  4.02032948
   2.01471695  0.00030719  8.05422682
   2.01585375  4.02030929  0.00101169
   2.01307388  4.04428937  4.04429310
   2.04507645  4.00550585  8.04143161
   2.01471674  8.05420742  0.00032992
   2.04508521  8.04142487  4.00552445
   2.03686992  8.04180579  8.04182444
   6.03702949  0.00145230  0.00145472
   6.03625667  0.00127976  4.02387106
   6.02229725  0.01590024  8.05149853
   6.03626701  4.02385375  0.00161036
   6.03023720  4.02508130  4.02517405
   6.03270671  4.02457476  8.04987122
   6.02229698  8.05147834  0.01589247
   6.03261620  8.04979642  4.02459270
   6.02384698  8.05089631  8.05092835
  10.06729413  0.01465683  0.01465793
  10.06653274 12.07769530  4.02434100
  10.06586540  0.00998834  8.05314265
  10.06652052  4.02432435 12.07806241
  10.06844427  3.99087316  3.99097557
  10.06815007  4.02704738  8.04989463
  10.06586519  8.05312258  0.00997698
  10.06823268  8.04981522  4.02706192
   9.88260108  8.23492157  8.23495492
 


--------------------------------------------------------------------------------------------------------


 k-point   1 :   0.0000 0.0000 0.0000  plane waves:   31919

 maximum and minimum number of plane-waves per node :     31919    31919

 maximum number of plane-waves:     31919
 maximum index in each direction: 
   IXMAX=   19   IYMAX=   19   IZMAX=   19
   IXMIN=  -19   IYMIN=  -19   IZMIN=  -19


 serial   3D FFT for wavefunctions
 parallel 3D FFT for charge:
    minimum data exchange during FFTs selected (reduces bandwidth)


 total amount of memory used by VASP MPI-rank0  1466161. kBytes
=======================================================================

   base      :      30000. kBytes
   nonl-proj :     114397. kBytes
   fftplans  :     141100. kBytes
   grid      :     372121. kBytes
   one-center:       1327. kBytes
   wavefun   :     807216. kBytes
 
     INWAV:  cpu time      0.4679: real time      0.9014
 Broyden mixing: mesh for mixing (old mesh)
   NGX = 39   NGY = 39   NGZ = 39
  (NGX  =160   NGY  =160   NGZ  =160)
  gives a total of  59319 points

 initial charge density was supplied:
 charge density of overlapping atoms calculated
 number of electron    1080.0000000 magnetization     216.0000000
 keeping initial charge density in first step


--------------------------------------------------------------------------------------------------------


 Maximum index for augmentation-charges          3671 (set IRDMAX)


--------------------------------------------------------------------------------------------------------


 First call to EWALD:  gamma=   0.147
 Maximum number of real-space cells 3x 3x 3
 Maximum number of reciprocal cells 3x 3x 3

    FEWALD:  cpu time      0.2523: real time      0.2531


--------------------------------------- Ionic step        1  -------------------------------------------




--------------------------------------- Iteration      1(   1)  ---------------------------------------


    POTLOK:  cpu time      0.1310: real time      0.1337
    SETDIJ:  cpu time      0.7057: real time      0.7082
     EDDAV:  cpu time      9.4398: real time      9.4767
       DOS:  cpu time      0.0003: real time      0.0003
    CHARGE:  cpu time      0.4789: real time      0.4808
    MIXING:  cpu time      0.0630: real time      0.0633
    --------------------------------------------
      LOOP:  cpu time     10.8188: real time     10.8629

 eigenvalue-minimisations  :  3028
 total energy-change (2. order) :-0.9290306E+03  (-0.3557198E+03)
 number of electron    1080.0000092 magnetization     142.4005295
 augmentation part      259.2656336 magnetization     143.9722075

 Broyden mixing:
  rms(total) = 0.13413E+02    rms(broyden)= 0.13401E+02
  rms(prec ) = 0.13746E+02
  weight for this iteration     100.00

 Free energy of the ion-electron system (eV)
  ---------------------------------------------------
  alpha Z        PSCENC =      2167.32059008
  Ewald energy   TEWEN  =    -60115.65740881
  -Hartree energ DENC   =    -23038.88708222
  -exchange      EXHF   =         0.00000000
  -V(xc)+E(xc)   XCENC  =      5435.60867635
  PAW double counting   =     53780.49107149   -55988.61141440
  entropy T*S    EENTRO =        -0.00000000
  eigenvalues    EBANDS =    -16264.15288424
  atomic energy  EATOM  =     93094.85783989
  Solvation  Ediel_sol  =         0.00000000
  ---------------------------------------------------
  free energy    TOTEN  =      -929.03061185 eV

  energy without entropy =     -929.03061185  energy(sigma->0) =     -929.03061185


--------------------------------------------------------------------------------------------------------




--------------------------------------- Iteration      1(   2)  ---------------------------------------


    POTLOK:  cpu time      0.0995: real time      0.1004
    SETDIJ:  cpu time      0.7061: real time      0.7085
     EDDAV:  cpu time      9.6056: real time      9.6398
       DOS:  cpu time      0.0003: real time      0.0003
    CHARGE:  cpu time      0.4531: real time      0.4549
    MIXING:  cpu time      0.0649: real time      0.0652
    --------------------------------------------
      LOOP:  cpu time     10.9295: real time     10.9691

 eigenvalue-minimisations  :  3204
 total energy-change (2. order) : 0.4545251E+03  (-0.8611293E+02)
 number of electron    1080.0000071 magnetization     104.1369006
 augmentation part      257.3720316 magnetization      90.1649706

 Broyden mixing:
  rms(total) = 0.64373E+01    rms(broyden)= 0.64341E+01
  rms(prec ) = 0.66898E+01
  weight for this iteration     100.00

 eigenvalues of (default mixing * dielectric matrix)
  average eigenvalue GAMMA=   0.7398
  0.7398

 Free energy of the ion-electron system (eV)
  ---------------------------------------------------
  alpha Z        PSCENC =      2167.32059008
[...]
      4.02736      2.01974      8.04100        -0.001415      0.002499      0.000424
      4.03774      6.03604      0.00566        -0.003648     -0.001315     -0.000245
      3.96000      6.02943      4.08510         0.000614      0.004513     -0.000984
      3.95666      6.03523      7.98872         0.043870     -0.004561      0.014465
      4.03383     10.06624      0.00424         0.000891      0.000869      0.002930
      4.01843     10.05677      4.02991        -0.000295      0.000454     -0.000501
      4.03885     10.07719      8.04912         0.015388      0.013335     -0.002695
      8.04244      2.01187     -0.00155         0.001219     -0.000353      0.000518
      8.04000      2.01217      4.02331         0.000234      0.001036      0.000185
      8.03907      2.01100      8.04735        -0.002649     -0.001311      0.000630
      8.03621      6.03678      0.00312        -0.003914     -0.000627      0.002091
      8.03861      6.03006      4.01288         0.003526      0.001377      0.009538
      8.05616      6.03734      8.04859         0.025105     -0.002807      0.004908
      8.04315     10.06528      0.00026         0.000985     -0.000313     -0.001190
      8.04698     10.06049      4.02561        -0.002719      0.001767     -0.001951
      8.04480     10.06496      8.05322         0.008072     -0.011988     -0.001370
      0.00020      0.02011      1.99203        -0.001323     -0.004648      0.004137
     -0.00527     12.12517      6.02775        -0.005428     -0.008800      0.001509
     -0.00036      0.00635     10.08129        -0.004203     -0.002602     -0.008064
      0.00821      4.00701      2.01165        -0.003906      0.004208      0.001931
      0.04656      3.98719      5.99479        -0.033139      0.015344      0.011083
      0.00495      3.92096     10.16478         0.001131      0.030678     -0.027988
      0.00550      8.05270      1.98281        -0.007830      0.001156      0.014725
     -0.08427      8.43263      5.71140        -0.183691     -0.112975      0.157886
     -0.00095      8.07597     10.11706        -0.014782     -0.020321     -0.033505
      4.03138      0.00078      2.01452        -0.000881     -0.000074      0.000813
      4.03774      0.00561      6.03609        -0.003648     -0.000245     -0.001316
      4.03383      0.00418     10.06629         0.000891      0.002931      0.000869
      4.02302      4.03118      2.02270        -0.000565      0.000016      0.000112
      3.96000      4.08505      6.02948         0.000613     -0.000984      0.004513
      4.01843      4.02986     10.05682        -0.000295     -0.000499      0.000453
      4.02736      8.04095      2.01979        -0.001414      0.000424      0.002498
      3.95667      7.98867      6.03528         0.043873      0.014467     -0.004563
      4.03885      8.04907     10.07724         0.015389     -0.002695      0.013335
      8.04245     12.07730      2.01192         0.001220      0.000518     -0.000353
      8.03621      0.00306      6.03683        -0.003914      0.002093     -0.000628
      8.04315      0.00021     10.06533         0.000985     -0.001190     -0.000315
      8.04000      4.02326      2.01223         0.000233      0.000185      0.001035
      8.03861      4.01283      6.03010         0.003528      0.009541      0.001378
      8.04698      4.02557     10.06053        -0.002720     -0.001952      0.001769
      8.03907      8.04730      2.01105        -0.002648      0.000629     -0.001312
      8.05616      8.04854      6.03739         0.025102      0.004905     -0.002806
      8.04480      8.05316     10.06502         0.008073     -0.001365     -0.011990
      2.02351      2.02013      2.02018        -0.001944      0.000361      0.000362
      2.02844      1.99995      6.02664        -0.006685      0.008368      0.002137
      2.02626      2.00872     10.06528        -0.003513      0.002092      0.001373
      2.02844      6.02659      2.00000        -0.006684      0.002140      0.008365
      0.79645      6.87487      6.87492         1.018610     -0.190509     -0.190497
      2.02813      6.03936     10.12373        -0.020992     -0.017807     -0.004798
      2.02626     10.06523      2.00878        -0.003513      0.001373      0.002091
      2.02813     10.12368      6.03941        -0.020993     -0.004803     -0.017806
      2.02076     10.09175     10.09180        -0.001331      0.017320      0.017319
      6.03407      2.01391      2.01396         0.000282      0.000257      0.000256
      6.02602      2.02257      6.03527        -0.000906      0.001364      0.000034
      6.03535      2.01825     10.06110         0.000032     -0.000162      0.000666
      6.02602      6.03521      2.02263        -0.000906      0.000034      0.001363
      6.03314      6.03849      6.03854         0.007972     -0.000289     -0.000289
      6.02756      6.03657     10.04767         0.004918     -0.001329      0.003296
      6.03535     10.06105      2.01830         0.000033      0.000666     -0.000162
      6.02756     10.04762      6.03662         0.004918      0.003296     -0.001329
      6.03824     10.06396     10.06402         0.003448      0.000382      0.000380
     10.05458      2.01007      2.01012         0.000487      0.001267      0.001267
     10.05286      2.00785      6.02737        -0.003542      0.002531      0.001150
     10.05236      2.00154     10.06878         0.001118      0.002337      0.001145
     10.05286      6.02732      2.00790        -0.003542      0.001149      0.002530
     10.04811      5.98955      5.98959         0.008745      0.071778      0.071774
     10.03408      6.04347     10.11628        -0.029123     -0.007083      0.002696
     10.05236     10.06873      2.00159         0.001118      0.001144      0.002339
     10.03408     10.11622      6.04352        -0.029122      0.002692     -0.007081
     10.05798     10.07672     10.07677        -0.004616     -0.012537     -0.012538
      2.02386      0.00539      0.00544        -0.002252      0.002976      0.002976
      2.02590      0.01333      4.01507        -0.003041     -0.000536      0.000448
      2.02532      0.01566      8.06079        -0.006667      0.002767     -0.002920
      2.02590      4.01502      0.01338        -0.003041      0.000448     -0.000534
      2.01275      4.07894      4.07899        -0.003375     -0.001260     -0.001260
      2.01765      4.01467      7.98470        -0.019829     -0.002676      0.025315
      2.02532      8.06075      0.01571        -0.006667     -0.002918      0.002766
      2.01765      7.98465      4.01473        -0.019829      0.025311     -0.002673
      2.07119      8.15998      8.16003         0.061050      0.113972      0.113978
      6.03774     -0.00025     -0.00020         0.000410      0.000698      0.000698
      6.03426     -0.00451      4.02636        -0.000260      0.001059     -0.000447
      6.03755      0.00152      8.04932         0.002514      0.000752     -0.000174
      6.03426      4.02631     -0.00445        -0.000260     -0.000447      0.001058
      6.02387      4.03284      4.03289        -0.000249      0.000858      0.000859
      6.02358      4.04022      8.03919         0.004451     -0.002918      0.000477
      6.03755      8.04927      0.00158         0.002515     -0.000173      0.000751
      6.02358      8.03915      4.04026         0.004452      0.000476     -0.002919
      6.02766      8.03777      8.03782         0.019710      0.001118      0.001120
     10.05360      0.00116      0.00121         0.000246     -0.001389     -0.001388
     10.05132     12.09088      4.01775         0.001315     -0.001640     -0.001482
     10.05327      0.00904      8.05590         0.001105     -0.004268     -0.000899
     10.05132      4.01770     12.09093         0.001315     -0.001483     -0.001639
     10.06500      4.01310      4.01315        -0.008857      0.012549      0.012547
     10.04566      3.97762      8.03082        -0.023929      0.004288      0.005523
     10.05327      8.05585      0.00909         0.001106     -0.000898     -0.004268
     10.04566      8.03077      3.97766        -0.023931      0.005519      0.004290
     10.08310      8.06592      8.06597         0.042787     -0.072976     -0.072977
 -----------------------------------------------------------------------------------
    total drift:                               -0.001886      0.007623      0.007598


--------------------------------------------------------------------------------------------------------



  FREE ENERGIE OF THE ION-ELECTRON SYSTEM (eV)
  ---------------------------------------------------
  free  energy   TOTEN  =     -1054.93741172 eV

  energy  without entropy=    -1054.93741172  energy(sigma->0) =    -1054.93741172
 
 d Force =-0.1773885E-01[-0.189E-01,-0.165E-01]  d Energy =-0.1773850E-01-0.349E-06
 d Force =-0.9320508E+00[-0.957E+00,-0.908E+00]  d Ewald  =-0.9320165E+00-0.343E-04


--------------------------------------------------------------------------------------------------------


    POTLOK:  cpu time      0.8408: real time      0.8438


--------------------------------------------------------------------------------------------------------


 NEB: the previous image is higher in energy:  F
 NEB: the next image is higher in energy    :  T
 NEB: only next energy greater

 NEB: Tangent
 ----------------------------------------------
     -0.00136      0.00494      0.00494
     -0.00154      0.00265     -0.00402
     -0.00016      0.00521      0.00196
     -0.00154     -0.00402      0.00265
      0.00218     -0.01785     -0.01785
      0.00891     -0.04426     -0.00140
     -0.00016      0.00196      0.00521
      0.00891     -0.00140     -0.04426
     -0.03161      0.14870      0.14870
      0.00190      0.00055      0.00055
      0.00232     -0.00147     -0.00059
      0.00465      0.00012     -0.00008
      0.00232     -0.00059     -0.00147
      0.00548     -0.00237     -0.00237
      0.00290      0.00037      0.00009
      0.00465     -0.00008      0.00012
      0.00289      0.00009      0.00037
     -0.00274     -0.00522     -0.00522
     -0.00033      0.00042      0.00042
      0.00180     -0.00319      0.00161
     -0.00240      0.00163     -0.00102
      0.00180      0.00161     -0.00319
      0.00160      0.00093      0.00093
      0.01634      0.01453     -0.00174
     -0.00240     -0.00102      0.00163
      0.01634     -0.00174      0.01453
      0.01079     -0.00493     -0.00493
     -0.00132     -0.00271     -0.00271
      0.00022     -0.00425     -0.00345
     -0.00133     -0.00444      0.00471
      0.00022     -0.00345     -0.00425
      0.02778     -0.08140     -0.08139
      0.00637     -0.00133      0.02710
     -0.00133      0.00471     -0.00444
      0.00637      0.02710     -0.00133
     -0.00268      0.02715      0.02714
      0.00205     -0.00073     -0.00072
      0.00729     -0.00385     -0.00032
      0.00222      0.00130      0.00016
      0.00729     -0.00032     -0.00385
      0.01052     -0.00473     -0.00473
      0.00484     -0.00276      0.00107
      0.00222      0.00016      0.00130
      0.00484      0.00107     -0.00276
      0.00484      0.00123      0.00123
      0.00007     -0.00008     -0.00008
      0.00024     -0.00086      0.00067
      0.00129      0.00337     -0.00156
      0.00024      0.00067     -0.00086
      0.01461      0.00508      0.00508
      0.01685      0.00146     -0.01580
      0.00129     -0.00156      0.00337
      0.01685     -0.01580      0.00146
     -0.00092     -0.00062     -0.00062
      0.00078     -0.00096     -0.00016
      0.00439      0.00210     -0.00133
      0.00276      0.00120      0.00054
      0.00275     -0.00339     -0.00487
      0.01454     -0.02255     -0.00637
     -0.00487      0.00167     -0.00145
      0.00583      0.00103     -0.00420
     -0.05030     -0.00833      0.01777
      0.00708     -0.00316      0.00327
      0.00155     -0.00045      0.00060
      0.00553     -0.00329     -0.00026
      0.00177      0.00082     -0.00009
      0.00253      0.00001     -0.00072
      0.00613      0.00040      0.00095
      0.00485      0.00157     -0.00205
      0.00417      0.00009      0.00324
      0.00482     -0.00156      0.00050
      0.00229     -0.00145     -0.00264
     -0.00176     -0.00146      0.00221
      0.00003     -0.00013     -0.00086
     -0.00366      0.00416      0.00189
     -0.00229     -0.00119     -0.00236
     -0.00571     -0.00840     -0.00126
      0.00698      0.00753     -0.00934
     -0.00152     -0.00004     -0.00112
      0.15043     -0.03605      0.03820
     -0.01294      0.00337      0.01643
      0.00078     -0.00016     -0.00096
      0.00275     -0.00487     -0.00339
      0.00583     -0.00420      0.00103
      0.00439     -0.00133      0.00210
      0.01454     -0.00637     -0.02255
     -0.05029      0.01777     -0.00833
      0.00276      0.00054      0.00120
     -0.00487     -0.00145      0.00167
      0.00708      0.00327     -0.00316
      0.00155      0.00060     -0.00045
      0.00253     -0.00072      0.00001
      0.00417      0.00324      0.00009
      0.00553     -0.00026     -0.00329
      0.00613      0.00095      0.00040
      0.00481      0.00050     -0.00156
      0.00177     -0.00009      0.00082
      0.00485     -0.00205      0.00157
      0.00229     -0.00264     -0.00145
     -0.00176      0.00221     -0.00146
     -0.00229     -0.00236     -0.00119
     -0.00152     -0.00113     -0.00004
      0.00002     -0.00086     -0.00013
     -0.00571     -0.00126     -0.00840
      0.15043      0.03820     -0.03605
     -0.00366      0.00189      0.00416
      0.00698     -0.00934      0.00753
     -0.01294      0.01643      0.00337
      0.00112     -0.00337      0.00366
      0.00309     -0.00125     -0.00306
      0.00613     -0.01185     -0.00088
      0.00450     -0.00107      0.00642
      0.02616     -0.00825     -0.01147
      0.14803     -0.12735      0.09025
      0.00313      0.00609      0.00153
     -0.00063      0.02222     -0.02489
      0.01251      0.02647      0.01638
      0.00018     -0.00054     -0.00014
      0.00026     -0.00023     -0.00009
      0.00123     -0.00171     -0.00037
      0.00327      0.00105     -0.00019
     -0.00035     -0.00336      0.00131
     -0.03300      0.00403     -0.01141
     -0.00073     -0.00049     -0.00220
      0.00028     -0.00059      0.00049
     -0.01237     -0.01127      0.00231
     -0.00069      0.00008     -0.00020
     -0.00032     -0.00087     -0.00034
      0.00146      0.00067     -0.00016
      0.00292      0.00026     -0.00176
     -0.00316     -0.00089     -0.00810
     -0.02003      0.00224     -0.00366
     -0.00107      0.00037      0.00080
      0.00257     -0.00104      0.00136
     -0.00628      0.00960      0.00098
      0.00112      0.00366     -0.00337
      0.00450      0.00642     -0.00108
      0.00313      0.00153      0.00609
      0.00309     -0.00306     -0.00125
      0.02616     -0.01148     -0.00825
     -0.00063     -0.02489      0.02222
      0.00612     -0.00088     -0.01185
      0.14803      0.09026     -0.12735
      0.01251      0.01638      0.02646
      0.00018     -0.00014     -0.00054
      0.00327     -0.00019      0.00105
     -0.00073     -0.00220     -0.00049
      0.00026     -0.00009     -0.00023
     -0.00035      0.00131     -0.00336
      0.00028      0.00049     -0.00059
      0.00123     -0.00037     -0.00171
     -0.03300     -0.01141      0.00403
     -0.01237      0.00231     -0.01128
     -0.00069     -0.00020      0.00008
      0.00292     -0.00176      0.00026
     -0.00107      0.00080      0.00038
     -0.00032     -0.00034     -0.00087
     -0.00316     -0.00810     -0.00089
      0.00257      0.00136     -0.00105
      0.00145     -0.00016      0.00068
     -0.02002     -0.00366      0.00224
     -0.00628      0.00097      0.00960
      0.00121     -0.00039     -0.00039
      0.00571     -0.00639     -0.00138
      0.00279     -0.00168     -0.00155
      0.00571     -0.00139     -0.00639
     -0.82316      0.15287      0.15286
      0.01729      0.01457      0.00292
      0.00279     -0.00155     -0.00169
      0.01729      0.00292      0.01457
      0.00108     -0.01427     -0.01427
     -0.00038     -0.00014     -0.00014
      0.00060     -0.00141     -0.00004
      0.00002      0.00023     -0.00001
      0.00060     -0.00004     -0.00141
     -0.00572     -0.00022     -0.00022
     -0.00382      0.00073     -0.00199
      0.00002     -0.00001      0.00023
     -0.00382     -0.00199      0.00073
     -0.00273     -0.00016     -0.00016
     -0.00000     -0.00105     -0.00105
      0.00211     -0.00216     -0.00091
     -0.00100     -0.00223     -0.00074
      0.00211     -0.00091     -0.00216
     -0.00689     -0.05771     -0.05770
      0.02367      0.00583     -0.00247
     -0.00100     -0.00073     -0.00223
      0.02367     -0.00247      0.00582
      0.00387      0.01022      0.01022
      0.00122     -0.00249     -0.00249
      0.00268      0.00020     -0.00020
      0.00590     -0.00271      0.00218
      0.00268     -0.00020      0.00020
      0.00243      0.00175      0.00175
      0.01609      0.00382     -0.02051
      0.00590      0.00218     -0.00271
      0.01609     -0.02050      0.00381
     -0.04857     -0.09329     -0.09329
     -0.00067     -0.00018     -0.00018
      0.00034     -0.00072      0.00004
     -0.00219     -0.00049      0.00035
      0.00034      0.00004     -0.00072
     -0.00012     -0.00066     -0.00066
     -0.00350      0.00185     -0.00003
     -0.00219      0.00035     -0.00049
     -0.00350     -0.00003      0.00185
     -0.01533     -0.00058     -0.00058
     -0.00024      0.00111      0.00111
     -0.00087      0.00141      0.00107
     -0.00138      0.00290      0.00079
     -0.00087      0.00107      0.00140
      0.00668     -0.01011     -0.01011
      0.01901     -0.00358     -0.00414
     -0.00138      0.00079      0.00290
      0.01902     -0.00413     -0.00358
     -0.03447      0.05920      0.05921

 NEB: forces: par spring, perp REAL, dneb     0.004927    0.012390    0.000000
 NEB: distance to prev, next image, angle between     0.684153    0.685139  152.609294
 NEB: projections on to tangent (spring, REAL)     0.004927   -1.238144

 stress matrix after NEB project (eV)
      0.00000      0.00000      0.00000
      0.00000      0.00000      0.00000
      0.00000      0.00000      0.00000
  FORCES: max atom, RMS     0.004690    0.000907
  FORCE total and by dimension    0.013334    0.004641
  Stress total and by dimension    0.000000    0.000000
 OPT: skip step - force has converged


--------------------------------------------------------------------------------------------------------


  
 reached required accuracy - stopping structural energy minimisation
 writing wavefunctions
     LOOP+:  cpu time    266.8353: real time    268.3040
    4ORBIT:  cpu time      0.0000: real time      0.0000

 total amount of memory used by VASP MPI-rank0  1466161. kBytes
=======================================================================

   base      :      30000. kBytes
   nonl-proj :     114397. kBytes
   fftplans  :     141100. kBytes
   grid      :     372121. kBytes
   one-center:       1327. kBytes
   wavefun   :     807216. kBytes
 
  
  
 General timing and accounting informations for this job:
 ========================================================
  
                  Total CPU time used (sec):     7151.114
                            User time (sec):     7101.725
                          System time (sec):       49.389
                         Elapsed time (sec):     7182.300
  
                   Maximum memory used (kb):     3141016.
                   Average memory used (kb):          N/A
  
                          Minor page faults:      1045690
                          Major page faults:            0
                 Voluntary context switches:       285060
