 vasp.6.4.2 20Jul23 (build Jun  3 2025 15:36:07) complex                         
 executed on              LinuxNV date 2025.06.27  12:57:04
 running    7 mpi-ranks, with    1 threads/rank, on    7 nodes
 each image running on    1 cores
 distrk:  each k-point on    1 cores,    1 groups
 distr:  one band on NCORE=   1 cores,    1 groups
 OpenACC runtime initialized ...    7 GPUs detected


--------------------------------------------------------------------------------------------------------


 INCAR:
   SYSTEM = Si
   ISTART = 1
   ICHARG = 2
   NCORE = 8
   ISPIN = 2
   NELECT = 1080
   NELM = 20
   ENCUT = 400
   PREC = Accurate
   ISMEAR = 0
   SIGMA = 0.01
   EDIFF = 1E-10
   IBRION = 3
   NSW = 500
   POTIM = 0
   ISIF = 0
   IOPT = 1
   EDIFFG = -0.010
   ICHAIN = 0
   IMAGES = 7
   SPRING = -5.0
   LCLIMB = .FALSE.

 POTCAR:   PAW_PBE F 08Apr2002                    
 POTCAR:    PAW_PBE Li_sv 10Sep2004               
 -----------------------------------------------------------------------------
|                                                                             |
|           W    W    AA    RRRRR   N    N  II  N    N   GGGG   !!!           |
|           W    W   A  A   R    R  NN   N  II  NN   N  G    G  !!!           |
|           W    W  A    A  R    R  N N  N  II  N N  N  G       !!!           |
|           W WW W  AAAAAA  RRRRR   N  N N  II  N  N N  G  GGG   !            |
|           WW  WW  A    A  R   R   N   NN  II  N   NN  G    G                |
|           W    W  A    A  R    R  N    N  II  N    N   GGGG   !!!           |
|                                                                             |
|     You use a magnetic or noncollinear calculation, but did not specify     |
|     the initial magnetic moment with the MAGMOM tag. Note that a            |
|     default of 1 will be used for all atoms. This ferromagnetic setup       |
|     may break the symmetry of the crystal, in particular it may rule        |
|     out finding an antiferromagnetic solution. Thence, we recommend         |
|     setting the initial magnetic moment manually or verifying carefully     |
|     that this magnetic setup is desired.                                    |
|                                                                             |
 -----------------------------------------------------------------------------

 POTCAR:   PAW_PBE F 08Apr2002                    
   VRHFIN =F: s2p5                                                                                  
   LEXCH  = PE                                                                                      
   EATOM  =   659.4942 eV,   48.4715 Ry                                                             
                                                                                                    
   TITEL  = PAW_PBE F 08Apr2002                                                                     
   LULTRA =        F    use ultrasoft PP ?                                                          
   IUNSCR =        0    unscreen: 0-lin 1-nonlin 2-no                                               
   RPACOR =     .000    partial core radius                                                         
   POMASS =   18.998; ZVAL   =    7.000    mass and valenz                                          
   RCORE  =    1.520    outmost cutoff radius                                                       
   RWIGS  =    1.500; RWIGS  =     .794    wigner-seitz radius (au A)                               
   ENMAX  =  400.000; ENMIN  =  300.000 eV                                                          
   ICORE  =        2    local potential                                                             
   LCOR   =        T    correct aug charges                                                         
   LPAW   =        T    paw PP                                                                      
   EAUG   =  613.614                                                                                
   DEXC   =     .000                                                                                
   RMAX   =    2.254    core radius for proj-oper                                                   
   RAUG   =    1.300    factor for augmentation sphere                                              
   RDEP   =    1.539    radius for radial grids                                                     
   QCUT   =   -5.545; QGAM   =   11.091    optimization parameters                                  
                                                                                                    
   Description                                                                                      
     l     E      TYP  RCUT    TYP  RCUT                                                            
     0   .000     23  1.200                                                                         
     0  -.700     23  1.200                                                                         
     1   .000     23  1.520                                                                         
     1   .100     23  1.520                                                                         
     2   .000      7  1.500                                                                         
  local pseudopotential read in
  atomic valenz-charges read in
  non local Contribution for L=            0  read in
    real space projection operators read in
  non local Contribution for L=            0  read in
    real space projection operators read in
  non local Contribution for L=            1  read in
    real space projection operators read in
  non local Contribution for L=            1  read in
    real space projection operators read in
    PAW grid and wavefunctions read in
 
   number of l-projection  operators is LMAX  =            4
   number of lm-projection operators is LMMAX =            8
 
 POTCAR:    PAW_PBE Li_sv 10Sep2004               
   VRHFIN =Li: 1s2s2p                                                                               
   LEXCH  = PE                                                                                      
   EATOM  =   202.7858 eV,   14.9043 Ry                                                             
                                                                                                    
   TITEL  = PAW_PBE Li_sv 10Sep2004                                                                 
   LULTRA =        F    use ultrasoft PP ?                                                          
   IUNSCR =        0    unscreen: 0-lin 1-nonlin 2-no                                               
   RPACOR =     .000    partial core radius                                                         
   POMASS =    7.010; ZVAL   =    3.000    mass and valenz                                          
   RCORE  =    1.700    outmost cutoff radius                                                       
   RWIGS  =    2.050; RWIGS  =    1.085    wigner-seitz radius (au A)                               
   ENMAX  =  499.034; ENMIN  =  374.276 eV                                                          
   ICORE  =        2    local potential                                                             
   LCOR   =        T    correct aug charges                                                         
   LPAW   =        T    paw PP                                                                      
   EAUG   =  628.945                                                                                
   RMAX   =    2.064    core radius for proj-oper                                                   
   RAUG   =    1.300    factor for augmentation sphere                                              
   RDEP   =    1.728    radius for radial grids                                                     
   QCUT   =   -6.056; QGAM   =   12.112    optimization parameters                                  
                                                                                                    
   Description                                                                                      
     l     E      TYP  RCUT    TYP  RCUT                                                            
     0   .000     23  1.400                                                                         
     0   .000     23  1.700                                                                         
     1   .000     23  1.400                                                                         
     2   .000     23  1.400                                                                         
  local pseudopotential read in
  atomic valenz-charges read in
  non local Contribution for L=            0  read in
    real space projection operators read in
  non local Contribution for L=            0  read in
    real space projection operators read in
  non local Contribution for L=            1  read in
    real space projection operators read in
    PAW grid and wavefunctions read in
 
   number of l-projection  operators is LMAX  =            3
   number of lm-projection operators is LMMAX =            5
 
 -----------------------------------------------------------------------------
|                                                                             |
|               ----> ADVICE to this user running VASP <----                  |
|                                                                             |
|     You have a (more or less) 'large supercell' and for larger cells it     |
|     might be more efficient to use real-space projection operators.         |
|     Therefore, try LREAL= Auto in the INCAR file.                           |
|     Mind: If you want to do very accurate calculations, keep the            |
|     reciprocal projection scheme (i.e. LREAL=.FALSE.).                      |
|                                                                             |
 -----------------------------------------------------------------------------

 PAW_PBE F 08Apr2002                    :
 energy of atom  1       EATOM= -659.4942
 kinetic energy error for atom=    0.1980 (will be added to EATOM!!)
  PAW_PBE Li_sv 10Sep2004               :
 energy of atom  2       EATOM= -202.7858
 kinetic energy error for atom=    0.0926 (will be added to EATOM!!)
 
 
 POSCAR: Li   F
  positions in direct lattice
  No initial velocities read in
 exchange correlation table for  LEXCH =        8
   RHO(1)=    0.500       N(1)  =     2000
   RHO(2)=  100.500       N(2)  =     4000

 VTST: version 4.1, (05/19/21)

 CHAIN: initializing optimizer
 
 OPT: Using LBFGS optimizer
 OPT: LBFGS, Init
 OPT: LBFGS, MEMORY             20
 OPT: LBFGS, IMAGES              7
 OPT: LBFGS, MAXMOVE      0.200000
 OPT: LBFGS, LGLOBAL      T
 OPT: LBFGS, INVCURV      0.010000
 OPT: LBFGS, LLINEOPT      F
 OPT: LBFGS, FDSTEP       0.005000
 OPT: LBFGS, LAUTOSCALE      T
 OPT: LBFGS, DAMPING      2.000000
 
 CHAIN: Read ICHAIN             0
 CHAIN: Running the NEB
 NEB:          SPRING     -5.000000
 NEB:          LCLIMB      F
 NEB:     LTANGENTOLD      F
 NEB:           LDNEB      F
 NEB:        LDNEBORG      F
 NEB:        LNEBCELL      F
 NEB:          EFIRST      0.000000
 NEB:           ELAST      0.000000
 
 POSCAR: Li   F
  positions in direct lattice
  No initial velocities read in
 
 POSCAR: Li   F
  positions in direct lattice
  No initial velocities read in
 
 POSCAR: Li   F
  positions in direct lattice
  No initial velocities read in
 
 POSCAR: Li   F
  positions in direct lattice
  No initial velocities read in
 


--------------------------------------------------------------------------------------------------------


 ion  position               nearest neighbor table
   1  0.000  1.000  1.000- 190 2.01 208 2.01 115 2.01 136 2.01 138 2.01 109 2.01
   2  0.000  1.000  0.333- 116 2.01 136 2.01 137 2.01 110 2.01 209 2.01 191 2.01
   3  0.000  1.000  0.667- 138 2.01 192 2.01 137 2.01 210 2.01 111 2.01 117 2.01
   4  0.000  0.333  1.000- 141 2.01 109 2.01 112 2.01 211 2.01 139 2.01 193 2.01
   5  1.000  0.333  0.333- 212 2.01 140 2.01 113 2.01 139 2.02 110 2.02 194 2.02
   6  0.000  0.333  0.667- 114 1.99 111 2.01 140 2.01 141 2.02 213 2.02 195 2.02
   7  0.000  0.667  1.000- 115 2.01 196 2.01 112 2.01 214 2.01 142 2.01 144 2.01
   8  0.000  0.667  0.333- 143 1.99 142 2.01 113 2.01 116 2.02 215 2.02 197 2.02
   9  0.001  0.666  0.666- 198 2.01 117 2.02 144 2.02 143 2.03 114 2.03 216 2.09
  10  0.333  1.000  1.000- 199 2.01 190 2.01 124 2.01 147 2.01 145 2.01 118 2.01
  11  0.333  0.000  0.333- 200 2.01 145 2.01 191 2.01 146 2.01 125 2.01 119 2.01
  12  0.333  0.000  0.667- 201 2.01 120 2.01 192 2.01 147 2.01 126 2.01 146 2.01
  13  0.333  0.333  0.000- 202 2.01 118 2.01 193 2.01 121 2.01 150 2.01 148 2.01
  14  0.333  0.333  0.333- 203 2.01 119 2.01 148 2.01 194 2.01 149 2.01 122 2.01
  15  0.334  0.333  0.667- 195 2.01 204 2.01 120 2.01 150 2.01 149 2.01 123 2.02
  16  0.333  0.667  0.000- 205 2.01 151 2.01 196 2.01 124 2.01 153 2.01 121 2.01
  17  0.334  0.667  0.333- 197 2.01 206 2.01 151 2.01 125 2.01 122 2.01 152 2.02
  18  0.334  0.667  0.667- 207 2.01 198 2.01 126 2.01 153 2.01 152 2.02 123 2.02
  19  0.667  1.000  1.000- 156 2.01 133 2.01 208 2.01 199 2.01 127 2.01 154 2.01
  20  0.667  1.000  0.333- 155 2.01 128 2.01 154 2.01 134 2.01 200 2.01 209 2.01
  21  0.666  0.000  0.667- 135 2.00 129 2.01 156 2.01 201 2.01 155 2.02 210 2.02
  22  0.667  0.333  0.000- 157 2.01 130 2.01 127 2.01 202 2.01 211 2.01 159 2.01
  23  0.667  0.333  0.333- 157 2.01 212 2.01 158 2.01 131 2.01 128 2.01 203 2.02
  24  0.667  0.333  0.667- 129 2.01 158 2.01 204 2.01 132 2.01 159 2.01 213 2.02
  25  0.666  0.667  0.000- 162 2.00 160 2.01 133 2.01 205 2.01 130 2.02 214 2.02
  26  0.667  0.667  0.333- 160 2.01 131 2.01 206 2.01 161 2.01 134 2.01 215 2.02
  27  0.665  0.667  0.667- 216 1.97 207 2.00 161 2.02 132 2.02 135 2.03 162 2.03
  28  1.000  0.167  0.167- 181 2.01 136 2.01 109 2.01 110 2.01 139 2.01 163 2.01
  29  1.000  0.166  0.500- 182 2.01 137 2.01 110 2.01 111 2.01 164 2.02 140 2.02
  30  0.000  0.167  0.833- 138 2.01 141 2.01 109 2.01 183 2.01 165 2.01 111 2.01
  31  1.000  0.500  0.166- 184 2.01 112 2.01 139 2.01 142 2.01 166 2.02 113 2.02
  32  0.996  0.501  0.501- 167 1.65 185 1.99 143 2.01 114 2.01 113 2.02 140 2.02
  33  0.000  0.500  0.833- 114 2.00 144 2.01 141 2.01 186 2.01 112 2.02 168 2.02
  34  0.000  0.833  0.167- 115 2.01 116 2.01 136 2.01 187 2.01 169 2.01 142 2.01
  35  0.000  0.833  0.500- 143 2.00 117 2.01 116 2.01 188 2.01 137 2.02 170 2.02
  36  1.000  0.833  0.833- 189 2.00 138 2.02 115 2.02 144 2.02 117 2.02 171 2.02
  37  0.333  0.167  0.167- 172 2.01 118 2.01 145 2.01 163 2.01 148 2.01 119 2.01
  38  0.333  0.166  0.500- 173 2.01 146 2.01 119 2.01 120 2.01 164 2.01 149 2.02
  39  0.333  0.167  0.833- 174 2.01 147 2.01 118 2.01 165 2.01 150 2.01 120 2.02
  40  0.333  0.500  0.166- 175 2.01 121 2.01 148 2.01 151 2.01 166 2.01 122 2.02
  41  0.335  0.500  0.500- 176 1.99 149 2.01 122 2.01 123 2.01 152 2.01
  42  0.334  0.500  0.834- 177 2.01 121 2.01 168 2.01 150 2.01 153 2.01 123 2.03
  43  0.333  0.833  0.167- 178 2.01 124 2.01 145 2.01 169 2.01 125 2.01 151 2.02
  44  0.334  0.834  0.500- 179 2.00 146 2.01 170 2.01 125 2.01 126 2.01 152 2.03
  45  0.333  0.833  0.833- 180 2.01 147 2.01 124 2.01 171 2.01 153 2.02 126 2.02
  46  0.667  0.167  0.167- 154 2.01 127 2.01 128 2.01 157 2.01 172 2.01 181 2.01
  47  0.667  0.166  0.500- 158 2.01 155 2.01 128 2.01 173 2.01 129 2.02 182 2.02
  48  0.667  0.167  0.833- 156 2.01 127 2.01 174 2.01 159 2.01 183 2.01 129 2.01
  49  0.667  0.500  0.167- 131 2.01 130 2.01 157 2.01 160 2.01 175 2.01 184 2.02
  50  0.667  0.500  0.500- 185 1.99 176 2.01 131 2.02 158 2.02 161 2.02 132 2.02
  51  0.666  0.500  0.834- 162 2.01 130 2.01 177 2.01 159 2.02 132 2.02 186 2.02
  52  0.667  0.833  0.167- 133 2.01 154 2.01 178 2.01 134 2.01 160 2.01 187 2.01
  53  0.666  0.834  0.500- 135 2.00 155 2.01 179 2.01 134 2.02 161 2.02 188 2.02
  54  0.667  0.833  0.833- 189 2.01 135 2.01 162 2.01 133 2.02 156 2.02 180 2.02
  55  0.167  0.000  0.167- 136 2.01 191 2.01 190 2.01 145 2.01 169 2.01 163 2.01
  56  0.167  0.000  0.500- 170 2.00 164 2.01 137 2.01 146 2.01 191 2.01 192 2.01
  57  0.167  1.000  0.833- 138 2.01 147 2.01 165 2.01 190 2.01 171 2.01 192 2.01
  58  0.167  0.333  0.166- 139 2.01 163 2.01 193 2.01 148 2.01 166 2.01 194 2.02
  59  0.166  0.331  0.500- 164 1.99 140 2.00 195 2.01 194 2.01 149 2.01 167 2.23
  60  0.167  0.333  0.834- 165 2.01 193 2.01 141 2.01 150 2.01 168 2.02 195 2.02
  61  0.167  0.667  0.166- 196 2.01 197 2.01 169 2.01 151 2.01 142 2.01 166 2.02
  62  0.168  0.669  0.500- 167 1.95 143 1.98 170 1.99 152 2.00 198 2.01 197 2.02
  63  0.167  0.667  0.834- 196 2.01 144 2.01 171 2.01 153 2.01 168 2.02 198 2.02
  64  0.500  0.000  0.167- 199 2.01 154 2.01 178 2.01 172 2.01 200 2.01 145 2.01
  65  0.500  0.000  0.500- 173 2.01 155 2.01 146 2.01 201 2.01 200 2.01 179 2.01
  66  0.500  1.000  0.833- 156 2.01 180 2.01 199 2.01 201 2.01 174 2.01 147 2.01
  67  0.500  0.333  0.167- 202 2.01 172 2.01 157 2.01 203 2.01 175 2.01 148 2.01
  68  0.500  0.333  0.500- 158 2.00 173 2.01 203 2.01 204 2.01 176 2.02 149 2.02
  69  0.500  0.333  0.833- 177 2.01 174 2.01 159 2.01 202 2.01 150 2.01 204 2.02
  70  0.500  0.667  0.167- 205 2.01 151 2.01 160 2.01 206 2.01 178 2.01 175 2.01
  71  0.500  0.667  0.500- 161 2.01 179 2.01 206 2.01 207 2.01 152 2.02 176 2.02
  72  0.500  0.667  0.834- 162 2.00 153 2.01 180 2.01 205 2.01 177 2.02 207 2.02
  73  0.833  0.000  0.167- 208 2.01 181 2.01 209 2.01 187 2.01 136 2.01 154 2.01
  74  0.833  1.000  0.500- 182 2.01 188 2.01 209 2.01 137 2.01 155 2.01 210 2.01
  75  0.833  0.000  0.834- 189 2.00 183 2.01 208 2.01 156 2.01 138 2.02 210 2.02
  76  0.833  0.333  0.166- 212 2.00 211 2.01 181 2.01 139 2.01 157 2.02 184 2.02
  77  0.833  0.332  0.500- 185 1.99 182 2.00 158 2.02 213 2.02 212 2.02 140 2.02
  78  0.833  0.333  0.833- 183 2.01 211 2.01 186 2.01 159 2.01 141 2.01 213 2.02
  79  0.833  0.667  0.167- 214 2.01 187 2.01 215 2.01 184 2.01 142 2.01 160 2.01
  80  0.832  0.668  0.500- 161 2.00 188 2.00 215 2.01 185 2.06 143 2.08 216 2.08
  81  0.833  0.667  0.834- 216 1.97 214 2.00 144 2.02 186 2.02 189 2.03 162 2.03
  82  0.167  0.167  0.000- 109 2.01 193 2.01 190 2.01 118 2.01 165 2.01 163 2.01
  83  0.167  0.166  0.333- 110 2.01 163 2.01 191 2.01 119 2.01 164 2.01 194 2.02
  84  0.167  0.166  0.667- 192 2.01 195 2.01 165 2.01 120 2.01 111 2.01 164 2.02
  85  0.167  0.500  0.000- 168 2.00 166 2.01 112 2.01 121 2.01 193 2.01 196 2.01
  86  0.166  0.500  0.331- 166 1.99 113 2.00 197 2.01 194 2.01 122 2.01 167 2.23
  87  0.168  0.500  0.669- 167 1.95 114 1.98 168 1.99 123 2.00 198 2.01 195 2.02
  88  0.167  0.833  1.000- 115 2.01 124 2.01 169 2.01 190 2.01 171 2.01 196 2.01
  89  0.167  0.834  0.333- 169 2.01 191 2.01 116 2.01 125 2.01 170 2.02 197 2.02
  90  0.167  0.834  0.667- 192 2.01 117 2.01 171 2.01 126 2.01 170 2.02 198 2.02
  91  0.500  0.167  0.000- 199 2.01 127 2.01 174 2.01 172 2.01 202 2.01 118 2.01
  92  0.500  0.167  0.333- 128 2.01 172 2.01 200 2.01 173 2.01 203 2.01 119 2.01
  93  0.500  0.167  0.667- 201 2.01 120 2.01 129 2.01 204 2.01 174 2.01 173 2.01
  94  0.500  0.500  0.000- 175 2.01 130 2.01 121 2.01 205 2.01 202 2.01 177 2.01
  95  0.500  0.500  0.333- 131 2.00 175 2.01 203 2.01 206 2.01 176 2.02 122 2.02
  96  0.500  0.500  0.667- 132 2.01 177 2.01 204 2.01 207 2.01 123 2.02 176 2.02
  97  0.500  0.833  1.000- 133 2.01 180 2.01 199 2.01 205 2.01 178 2.01 124 2.01
  98  0.500  0.833  0.333- 179 2.01 178 2.01 134 2.01 200 2.01 125 2.01 206 2.02
  99  0.500  0.834  0.667- 135 2.00 126 2.01 180 2.01 201 2.01 179 2.02 207 2.02
 100  0.833  0.167  0.000- 208 2.01 181 2.01 211 2.01 183 2.01 109 2.01 127 2.01
 101  0.833  0.166  0.333- 212 2.00 209 2.01 181 2.01 128 2.01 110 2.02 182 2.02
 102  0.833  0.167  0.667- 210 2.01 183 2.01 213 2.01 182 2.01 111 2.01 129 2.01
 103  0.833  0.500  1.000- 184 2.01 186 2.01 211 2.01 112 2.01 130 2.01 214 2.01
 104  0.833  0.500  0.332- 185 1.99 184 2.00 131 2.02 215 2.02 212 2.02 113 2.02
 105  0.832  0.500  0.668- 132 2.00 186 2.00 213 2.01 185 2.06 114 2.08 216 2.08
 106  0.833  0.834  0.000- 189 2.00 187 2.01 208 2.01 133 2.01 115 2.02 214 2.02
 107  0.833  0.833  0.333- 187 2.01 209 2.01 188 2.01 116 2.01 134 2.01 215 2.01
 108  0.833  0.834  0.667- 216 1.97 210 2.00 117 2.02 188 2.02 189 2.03 135 2.03
 109  0.000  0.167  0.000-  82 2.01  28 2.01   4 2.01  30 2.01   1 2.01 100 2.01
 110  0.000  0.167  0.333-  83 2.01  29 2.01   2 2.01  28 2.01 101 2.02   5 2.02
 111  0.000  0.167  0.667-   6 2.01  29 2.01  84 2.01   3 2.01 102 2.01  30 2.01
 112  0.000  0.500  1.000-  31 2.01  85 2.01   4 2.01   7 2.01 103 2.01  33 2.02
 113  0.000  0.500  0.333-  86 2.00   5 2.01   8 2.01  31 2.02 104 2.02  32 2.02
 114  0.004  0.498  0.667-  87 1.98   6 1.99  33 2.00  32 2.01   9 2.03 105 2.08 167 2.44
 115  0.000  0.833  0.000-  34 2.01  88 2.01   7 2.01   1 2.01  36 2.02 106 2.02
 116  0.000  0.833  0.333-   2 2.01  34 2.01  89 2.01 107 2.01  35 2.01   8 2.02
 117  0.000  0.833  0.666-  90 2.01  35 2.01   3 2.01  36 2.02 108 2.02   9 2.02
 118  0.333  0.167  0.000-  37 2.01  13 2.01  39 2.01  82 2.01  10 2.01  91 2.01
 119  0.333  0.167  0.333-  14 2.01  83 2.01  38 2.01  11 2.01  37 2.01  92 2.01
 120  0.333  0.167  0.667-  15 2.01  12 2.01  93 2.01  84 2.01  38 2.01  39 2.02
 121  0.333  0.500  0.000-  42 2.01  40 2.01  94 2.01  13 2.01  85 2.01  16 2.01
 122  0.333  0.500  0.334-  41 2.01  86 2.01  14 2.01  17 2.01  95 2.02  40 2.02
 123  0.333  0.500  0.666-  87 2.00  41 2.01  15 2.02  18 2.02  96 2.02  42 2.03
 124  0.333  0.833  0.000-  43 2.01  45 2.01  88 2.01  10 2.01  16 2.01  97 2.01
 125  0.333  0.833  0.333-  44 2.01  98 2.01  89 2.01  17 2.01  11 2.01  43 2.01
 126  0.333  0.833  0.667-  99 2.01  18 2.01  90 2.01  44 2.01  12 2.01  45 2.02
 127  0.667  0.167  0.000-  48 2.01  22 2.01  46 2.01  91 2.01 100 2.01  19 2.01
 128  0.667  0.167  0.333-  92 2.01  20 2.01  46 2.01  47 2.01  23 2.01 101 2.01
 129  0.667  0.167  0.667-  21 2.01  24 2.01  93 2.01  48 2.01 102 2.01  47 2.02
 130  0.667  0.500  0.000-  49 2.01  22 2.01  51 2.01  94 2.01 103 2.01  25 2.02
 131  0.666  0.500  0.333-  95 2.00  49 2.01  26 2.01  23 2.01 104 2.02  50 2.02
 132  0.666  0.500  0.667- 105 2.00  96 2.01  24 2.01  51 2.02  27 2.02  50 2.02
 133  0.667  0.833  0.000-  52 2.01  19 2.01  97 2.01  25 2.01 106 2.01  54 2.02
 134  0.667  0.833  0.333-  98 2.01  20 2.01  52 2.01  26 2.01 107 2.01  53 2.02
 135  0.665  0.835  0.666-  99 2.00  21 2.00  53 2.00  54 2.01  27 2.03 108 2.03
 136  0.000  0.000  0.167-  55 2.01  28 2.01   2 2.01  34 2.01   1 2.01  73 2.01
 137  0.000  1.000  0.500-  29 2.01  56 2.01   2 2.01   3 2.01  74 2.01  35 2.02
 138  0.000  0.000  0.833-  30 2.01  57 2.01   3 2.01   1 2.01  36 2.02  75 2.02
 139  0.000  0.333  0.167-  58 2.01  31 2.01   4 2.01  28 2.01  76 2.01   5 2.02
 140  0.000  0.333  0.500-  59 2.00   5 2.01   6 2.01  29 2.02  77 2.02  32 2.02
 141  0.000  0.333  0.833-   4 2.01  30 2.01  60 2.01  33 2.01  78 2.01   6 2.02
 142  0.000  0.667  0.167-   8 2.01  31 2.01  61 2.01   7 2.01  79 2.01  34 2.01
 143  0.004  0.667  0.498-  62 1.98   8 1.99  35 2.00  32 2.01   9 2.03  80 2.08 167 2.44
 144  0.000  0.666  0.833-  63 2.01  33 2.01   7 2.01  36 2.02  81 2.02   9 2.02
 145  0.333  0.000  0.167-  37 2.01  11 2.01  43 2.01  55 2.01  10 2.01  64 2.01
 146  0.333  0.000  0.500-  44 2.01  38 2.01  65 2.01  11 2.01  56 2.01  12 2.01
 147  0.333  0.000  0.833-  39 2.01  45 2.01  57 2.01  10 2.01  12 2.01  66 2.01
 148  0.333  0.333  0.167-  14 2.01  58 2.01  40 2.01  13 2.01  37 2.01  67 2.01
 149  0.333  0.334  0.500-  41 2.01  59 2.01  14 2.01  15 2.01  68 2.02  38 2.02
 150  0.333  0.333  0.833-  42 2.01  15 2.01  60 2.01  69 2.01  13 2.01  39 2.01
 151  0.333  0.667  0.167-  17 2.01  16 2.01  70 2.01  61 2.01  40 2.01  43 2.02
 152  0.333  0.666  0.500-  62 2.00  41 2.01  17 2.02  18 2.02  71 2.02  44 2.03
 153  0.333  0.667  0.833-  72 2.01  18 2.01  63 2.01  42 2.01  16 2.01  45 2.02
 154  0.667  1.000  0.167-  46 2.01  52 2.01  20 2.01  64 2.01  73 2.01  19 2.01
 155  0.667  0.000  0.500-  47 2.01  20 2.01  53 2.01  65 2.01  74 2.01  21 2.02
 156  0.667  0.000  0.833-  48 2.01  19 2.01  66 2.01  21 2.01  75 2.01  54 2.02
 157  0.667  0.333  0.167-  22 2.01  67 2.01  23 2.01  46 2.01  49 2.01  76 2.02
 158  0.666  0.333  0.500-  68 2.00  47 2.01  24 2.01  23 2.01  77 2.02  50 2.02
 159  0.667  0.333  0.833-  69 2.01  48 2.01  78 2.01  22 2.01  24 2.01  51 2.02
 160  0.667  0.667  0.167-  25 2.01  26 2.01  70 2.01  52 2.01  49 2.01  79 2.01
 161  0.666  0.667  0.500-  80 2.00  71 2.01  26 2.01  53 2.02  27 2.02  50 2.02
 162  0.665  0.666  0.835-  72 2.00  25 2.00  51 2.01  54 2.01  27 2.03  81 2.03
 163  0.167  0.167  0.167-  58 2.01  83 2.01  37 2.01  82 2.01  55 2.01  28 2.01
 164  0.167  0.166  0.500-  59 1.99  56 2.01  38 2.01  83 2.01  29 2.02  84 2.02
 165  0.167  0.167  0.833-  60 2.01  84 2.01  57 2.01  82 2.01  39 2.01  30 2.01
 166  0.167  0.500  0.166-  86 1.99  85 2.01  40 2.01  58 2.01  31 2.02  61 2.02
 167  0.132  0.512  0.512-  32 1.65  62 1.95  87 1.95  86 2.23  59 2.23 143 2.44 114 2.44
 168  0.167  0.500  0.834-  87 1.99  85 2.00  42 2.01  60 2.02  63 2.02  33 2.02
 169  0.167  0.833  0.167-  89 2.01  61 2.01  88 2.01  55 2.01  43 2.01  34 2.01
 170  0.167  0.834  0.500-  62 1.99  56 2.00  44 2.01  89 2.02  90 2.02  35 2.02
 171  0.167  0.833  0.833-  90 2.01  63 2.01  45 2.01  88 2.01  57 2.01  36 2.02
 172  0.500  0.167  0.167-  37 2.01  92 2.01  67 2.01  64 2.01  91 2.01  46 2.01
 173  0.500  0.167  0.500-  38 2.01  68 2.01  65 2.01  92 2.01  47 2.01  93 2.01
 174  0.500  0.167  0.833-  39 2.01  69 2.01  91 2.01  48 2.01  93 2.01  66 2.01
 175  0.500  0.500  0.167-  40 2.01  95 2.01  94 2.01  67 2.01  49 2.01  70 2.01
 176  0.500  0.500  0.500-  41 1.99  50 2.01  68 2.02  95 2.02  96 2.02  71 2.02
 177  0.500  0.500  0.833-  42 2.01  96 2.01  69 2.01  51 2.01  94 2.01  72 2.02
 178  0.500  0.833  0.167-  43 2.01  98 2.01  64 2.01  52 2.01  70 2.01  97 2.01
 179  0.500  0.833  0.500-  44 2.00  71 2.01  98 2.01  53 2.01  65 2.01  99 2.02
 180  0.500  0.833  0.833-  45 2.01  66 2.01  97 2.01  72 2.01  99 2.01  54 2.02
 181  0.833  0.166  0.166-  73 2.01 100 2.01 101 2.01  76 2.01  28 2.01  46 2.01
 182  0.833  0.166  0.500-  77 2.00  29 2.01  74 2.01 102 2.01 101 2.02  47 2.02
 183  0.833  0.167  0.833-  75 2.01  78 2.01 102 2.01  30 2.01 100 2.01  48 2.01
 184  0.833  0.500  0.166- 104 2.00  31 2.01 103 2.01  79 2.01  76 2.02  49 2.02
 185  0.831  0.497  0.497-  77 1.99 104 1.99  50 1.99  32 1.99 105 2.06  80 2.06
 186  0.833  0.500  0.833- 105 2.00 103 2.01  78 2.01  33 2.01  81 2.02  51 2.02
 187  0.833  0.833  0.167- 106 2.01 107 2.01  79 2.01  34 2.01  73 2.01  52 2.01
 188  0.833  0.833  0.500-  80 2.00  74 2.01 107 2.01  35 2.01 108 2.02  53 2.02
 189  0.834  0.835  0.835-  75 2.00 106 2.00  36 2.00  54 2.01  81 2.03 108 2.03
 190  0.167  0.000  0.000-  55 2.01  82 2.01  10 2.01  88 2.01  57 2.01   1 2.01
 191  0.167  0.000  0.333-  83 2.01  89 2.01  55 2.01  11 2.01   2 2.01  56 2.01
 192  0.167  0.000  0.667-  84 2.01  90 2.01  12 2.01   3 2.01  57 2.01  56 2.01
 193  0.167  0.333  0.000-  58 2.01  60 2.01  82 2.01  13 2.01   4 2.01  85 2.01
 194  0.167  0.334  0.334-  86 2.01  59 2.01  14 2.01   5 2.02  83 2.02  58 2.02
 195  0.168  0.333  0.666-  15 2.01  59 2.01  84 2.01  87 2.02   6 2.02  60 2.02
 196  0.167  0.667  0.000-  61 2.01  63 2.01  16 2.01   7 2.01  88 2.01  85 2.01
 197  0.168  0.666  0.333-  17 2.01  86 2.01  61 2.01  62 2.02   8 2.02  89 2.02
 198  0.167  0.666  0.666-  18 2.01   9 2.01  62 2.01  87 2.01  90 2.02  63 2.02
 199  0.500  0.000  0.000-  91 2.01  64 2.01  10 2.01  66 2.01  97 2.01  19 2.01
 200  0.500  0.000  0.333-  11 2.01  92 2.01  98 2.01  64 2.01  20 2.01  65 2.01
 201  0.500  0.000  0.667-  93 2.01  12 2.01  65 2.01  99 2.01  66 2.01  21 2.01
 202  0.500  0.333  0.000-  13 2.01  67 2.01  69 2.01  91 2.01  22 2.01  94 2.01
 203  0.500  0.333  0.333-  14 2.01  68 2.01  95 2.01  67 2.01  92 2.01  23 2.02
 204  0.500  0.333  0.667-  15 2.01  96 2.01  93 2.01  24 2.01  68 2.01  69 2.02
 205  0.500  0.667  0.000-  70 2.01  16 2.01  94 2.01  72 2.01  97 2.01  25 2.01
 206  0.500  0.667  0.333-  17 2.01  71 2.01  70 2.01  26 2.01  95 2.01  98 2.02
 207  0.500  0.667  0.667-  27 2.00  18 2.01  96 2.01  71 2.01  72 2.02  99 2.02
 208  0.833  0.000  0.000- 100 2.01  73 2.01  75 2.01 106 2.01   1 2.01  19 2.01
 209  0.833  1.000  0.333- 101 2.01 107 2.01  73 2.01   2 2.01  74 2.01  20 2.01
 210  0.833  0.000  0.667- 108 2.00 102 2.01   3 2.01  74 2.01  21 2.02  75 2.02
 211  0.833  0.333  0.000-  76 2.01  78 2.01 100 2.01   4 2.01 103 2.01  22 2.01
 212  0.833  0.332  0.332-  76 2.00 101 2.00   5 2.01  23 2.01  77 2.02 104 2.02
 213  0.833  0.333  0.667- 105 2.01 102 2.01  78 2.02  24 2.02   6 2.02  77 2.02
 214  0.833  0.667  0.000-  81 2.00  79 2.01   7 2.01 103 2.01  25 2.02 106 2.02
 215  0.833  0.667  0.333-  80 2.01  79 2.01 107 2.01  26 2.02   8 2.02 104 2.02
 216  0.828  0.672  0.672-  81 1.97 108 1.97  27 1.97 105 2.08  80 2.08   9 2.09
 
  LATTYP: Found a simple cubic cell.
 ALAT       =    12.0789003372
  
  Lattice vectors:
  
 A1 = (  12.0789003372,   0.0000000000,   0.0000000000)
 A2 = (   0.0000000000,  12.0789003372,   0.0000000000)
 A3 = (   0.0000000000,   0.0000000000,  12.0789003372)


Analysis of symmetry for initial positions (statically):
=====================================================================
 Subroutine PRICEL returns:
 Original cell was already a primitive cell.
 

 Routine SETGRP: Setting up the symmetry group for a 
 simple cubic supercell.


 Subroutine GETGRP returns: Found  1 space group operations
 (whereof  1 operations were pure point group operations)
 out of a pool of 48 trial point group operations.


The static configuration has the point symmetry C_1 .


Analysis of symmetry for dynamics (positions and initial velocities):
=====================================================================
 Subroutine PRICEL returns:
 Original cell was already a primitive cell.
 

 Routine SETGRP: Setting up the symmetry group for a 
 simple cubic supercell.


 Subroutine GETGRP returns: Found  1 space group operations
 (whereof  1 operations were pure point group operations)
 out of a pool of 48 trial point group operations.


The dynamic configuration has the point symmetry C_1 .


Analysis of structural, dynamic, and magnetic symmetry:
=====================================================================
 Subroutine PRICEL returns:
 Original cell was already a primitive cell.
 

 Routine SETGRP: Setting up the symmetry group for a 
 simple cubic supercell.


 Subroutine GETGRP returns: Found  1 space group operations
 (whereof  1 operations were pure point group operations)
 out of a pool of 48 trial point group operations.


The overall configuration has the point symmetry C_1 .


 Subroutine INISYM returns: Found  1 space group operations
 (whereof  1 operations are pure point group operations),
 and found     1 'primitive' translations


----------------------------------------------------------------------------------------

                                     Primitive cell                                     

  volume of cell :    1762.3095

  direct lattice vectors                    reciprocal lattice vectors
    12.078900337  0.000000000  0.000000000     0.082788993  0.000000000  0.000000000
     0.000000000 12.078900337  0.000000000     0.000000000  0.082788993  0.000000000
     0.000000000  0.000000000 12.078900337     0.000000000  0.000000000  0.082788993

  length of vectors
    12.078900337 12.078900337 12.078900337     0.082788993  0.082788993  0.082788993

  position of ions in fractional coordinates (direct lattice)
     0.000105279  0.999987544  0.999988543
     0.000026997  0.999929500  0.333288183
     0.000030223  0.999940364  0.666645272
     0.000027379  0.333287896  0.999929473
     0.999802006  0.333445800  0.333448356
     0.000382121  0.333133231  0.666570555
     0.000029886  0.666645071  0.999941639
     0.000380311  0.666567829  0.333133412
     0.000790891  0.666247726  0.666247636
     0.333377667  0.999989696  0.999990794
     0.333369119  0.000055696  0.333236284
     0.333298755  0.000094177  0.666689908
     0.333368612  0.333236230  0.000038725
     0.333271879  0.333295767  0.333297037
     0.333546713  0.333019415  0.666703274
     0.333299080  0.666690012  0.000095422
     0.333548486  0.666701987  0.333019508
     0.333501554  0.666768255  0.666768022
     0.666690116  0.999925483  0.999925725
     0.666607174  0.999982334  0.333283004
     0.666344191  0.000340923  0.666749775
     0.666606255  0.333280967  0.000149820
     0.666749170  0.333245410  0.333261350
     0.666502230  0.333198771  0.666554736
     0.666344185  0.666747109  0.000342392
     0.666502409  0.666537904  0.333201704
     0.665494524  0.666969446  0.666970699
     0.999944277  0.166614190  0.166615922
     0.999835903  0.166376561  0.499933301
     0.000035943  0.166606519  0.833380928
     0.999833274  0.499935125  0.166376660
     0.996400586  0.500935227  0.500934835
     0.000157357  0.499832297  0.832971205
     0.000033599  0.833380878  0.166605670
     0.000154673  0.832971062  0.499834093
     0.999700289  0.833357982  0.833358508
     0.333373675  0.166602251  0.166595185
     0.333463274  0.166420169  0.499954988
     0.333417869  0.166546382  0.833420852
     0.333465750  0.499951364  0.166416403
     0.335492283  0.499887913  0.499888190
     0.333659709  0.499874410  0.833891615
     0.333420216  0.833424723  0.166550430
     0.333662376  0.833895375  0.499871193
     0.333323447  0.833449600  0.833450144
     0.666630463  0.166527637  0.166617838
     0.666500935  0.166473177  0.499871594
     0.666588503  0.166714471  0.833456518
     0.666501234  0.499929115  0.166513645
     0.666690097  0.499610999  0.499605453
     0.666362474  0.500224142  0.833691256
     0.666588613  0.833417400  0.166665527
     0.666362808  0.833652151  0.500276159
     0.667203295  0.832845421  0.832845931
     0.166677465  0.000010578  0.166606538
     0.166671642  0.000023486  0.499916096
     0.166657908  0.999971349  0.833385640
     0.166590962  0.333143244  0.166445715
     0.166446661  0.331320517  0.500156051
     0.166717073  0.333015250  0.833527904
     0.166765154  0.666871728  0.166323075
     0.167867363  0.669006793  0.499708731
     0.166643604  0.666793332  0.833548852
     0.500003928  0.000006214  0.166597616
     0.499991442  0.000091508  0.499979638
     0.500068240  0.999926630  0.833367735
     0.499935879  0.333240640  0.166655904
     0.500117987  0.332996446  0.499876664
     0.500064311  0.333251637  0.833462452
     0.499925843  0.666692724  0.166627891
     0.500151456  0.666857189  0.499902254
     0.499610011  0.666775203  0.833754520
     0.833389817  0.000042989  0.166606187
     0.833300994  0.999936196  0.499950529
     0.833342518  0.000352731  0.833722590
     0.833386154  0.333065933  0.166443495
     0.833063398  0.332440362  0.499577898
     0.833349495  0.333290022  0.833431568
     0.833359091  0.666684582  0.166670089
     0.831895261  0.667502550  0.499515018
     0.833303563  0.666906906  0.834349095
     0.166677255  0.166605884  0.000011125
     0.166585601  0.166448599  0.333144188
     0.166765263  0.166322979  0.666872004
     0.166671631  0.499915693  0.000023470
     0.166446367  0.500155380  0.331321392
     0.167867573  0.499707842  0.669007727
     0.166658029  0.833385007  0.999971562
     0.166722156  0.833531405  0.333015735
     0.166643707  0.833548213  0.666794231
     0.500005897  0.166597328  0.000002447
     0.499995989  0.166621685  0.333240020
     0.499925210  0.166625421  0.666694182
     0.499991328  0.499980013  0.000090148
     0.500120683  0.499879462  0.332995777
     0.500148790  0.499904613  0.666856308
     0.500066445  0.833367632  0.999928765
     0.500007190  0.833427272  0.333252366
     0.499608603  0.833754401  0.666773557
     0.833387996  0.166606119  0.000038863
     0.833333445  0.166405997  0.333064878
     0.833359886  0.166667485  0.666686052
     0.833301100  0.499950759  0.999934404
     0.833060841  0.499581087  0.332439366
     0.831897729  0.499517853  0.667501514
     0.833344132  0.833722545  0.000354930
     0.833399585  0.833392573  0.333290946
     0.833304879  0.834348968  0.666905017
     0.000120467  0.166676868  0.000026818
     0.000174211  0.166597213  0.333337202
     0.000131865  0.166653394  0.666562647
     0.000014937  0.499953675  0.999886107
     0.000488894  0.499925351  0.333375348
     0.003757575  0.498032684  0.667058917
     0.000253607  0.833299555  0.000206172
     0.000146776  0.833461720  0.333078152
     0.000164961  0.833191489  0.666497551
     0.333322353  0.166661779  0.000041936
     0.333193819  0.166775016  0.333346190
     0.333351376  0.166611093  0.666582300
     0.333407182  0.499890603  0.000142367
     0.332830977  0.499911341  0.333811461
     0.333201555  0.499869025  0.666088065
     0.333253979  0.833358708  0.000019375
     0.333365967  0.833350986  0.333270864
     0.333255723  0.833366084  0.666579894
     0.666612135  0.166704060  0.000032794
     0.666538233  0.166527715  0.333204232
     0.666582388  0.166719220  0.666693190
     0.666571996  0.499783064  0.000259955
     0.666052867  0.499954791  0.332559412
     0.666274352  0.499911023  0.666719776
     0.666565283  0.833442288  0.000245940
     0.666611696  0.833304834  0.333378134
     0.664953199  0.834926945  0.666247189
     0.000120161  0.000028343  0.166677063
     0.000015074  0.999887452  0.499954719
     0.000254004  0.000205381  0.833299878
     0.000187245  0.333336840  0.166601258
     0.000487108  0.333375118  0.499925850
     0.000131921  0.333077731  0.833465853
     0.000133229  0.666561907  0.166653482
     0.003759475  0.667058463  0.498033640
     0.000165278  0.666497331  0.833191835
     0.333322591  0.000048959  0.166661515
     0.333407028  0.000147639  0.499891697
     0.333253658  0.000017356  0.833358606
     0.333181828  0.333346793  0.166771655
     0.332832663  0.333812041  0.499911152
     0.333379692  0.333270299  0.833348807
     0.333350059  0.666581034  0.166611768
     0.333199901  0.666088539  0.499869151
     0.333255435  0.666580970  0.833366002
     0.666612261  0.999979600  0.166707243
     0.666572110  0.000220669  0.499784743
     0.666565228  0.000257424  0.833446923
     0.666536865  0.333194218  0.166608767
     0.666053041  0.332549314  0.499961535
     0.666613001  0.333378334  0.833368793
     0.666582283  0.666697372  0.166714156
     0.666274215  0.666710250  0.499920942
     0.664953139  0.666233429  0.834931595
     0.166686944  0.166731335  0.166730549
     0.166719239  0.166197228  0.499895849
     0.166764645  0.166607632  0.833365693
     0.166719544  0.499894727  0.166197525
     0.132332024  0.512219225  0.512219120
     0.167321299  0.499896786  0.834112523
     0.166764877  0.833365336  0.166609114
     0.167321621  0.834112110  0.499896415
     0.166650993  0.833294199  0.833294644
     0.499900635  0.166657958  0.166661143
     0.499721735  0.166667532  0.499907057
     0.499938219  0.166726994  0.833368456
     0.499718137  0.499905668  0.166667815
     0.500381610  0.499866928  0.499871416
     0.499655272  0.499763993  0.833348431
     0.499935489  0.833367736  0.166724328
     0.499651526  0.833347672  0.499767586
     0.499684319  0.833424277  0.833424746
     0.833371212  0.166496023  0.166499746
     0.833373842  0.166484368  0.499917642
     0.833351592  0.166767931  0.833351413
     0.833377007  0.499916238  0.166484666
     0.831389845  0.496769020  0.496773669
     0.833342633  0.499960565  0.833376247
     0.833354163  0.833350707  0.166764857
     0.833346036  0.833375535  0.499964305
     0.833772668  0.834939279  0.834939715
     0.166765206  0.000025828  0.000026498
     0.166744937  0.000031061  0.333178177
     0.166713548  0.000008280  0.666701809
     0.166744943  0.333177689  0.000028962
     0.166661537  0.333832260  0.333831132
     0.167545417  0.332761276  0.666356341
     0.166713539  0.666701290  0.000009155
     0.167546406  0.666357163  0.332761722
     0.167318952  0.666367000  0.666367337
     0.499946564  0.000039995  0.000038562
     0.499911973  0.000036941  0.333260985
     0.499527004  0.000439905  0.666641326
     0.499913182  0.333260752  0.000073630
     0.499738966  0.333299667  0.333308846
     0.499821426  0.333284965  0.666599168
     0.499526993  0.666640713  0.000437206
     0.499810962  0.666592052  0.333285316
     0.499569921  0.666619101  0.666621108
     0.833419282  0.000404483  0.000403010
     0.833357395  0.999965538  0.333267932
     0.833338744  0.000276858  0.666692771
     0.833356027  0.333267701  0.000006450
     0.833417507  0.332357925  0.332368150
     0.833394284  0.333356269  0.666596631
     0.833338742  0.666692177  0.000273855
     0.833403829  0.666588788  0.333356495
     0.828280852  0.671694497  0.671696670

  ion indices of the primitive-cell ions
   primitive index   ion index
                 1           1
                 2           2
                 3           3
                 4           4
                 5           5
                 6           6
                 7           7
                 8           8
                 9           9
                10          10
                11          11
                12          12
                13          13
                14          14
                15          15
                16          16
                17          17
                18          18
                19          19
                20          20
                21          21
                22          22
                23          23
                24          24
                25          25
                26          26
                27          27
                28          28
                29          29
                30          30
                31          31
                32          32
                33          33
                34          34
                35          35
                36          36
                37          37
                38          38
                39          39
                40          40
                41          41
                42          42
                43          43
                44          44
                45          45
                46          46
                47          47
                48          48
                49          49
                50          50
                51          51
                52          52
                53          53
                54          54
                55          55
                56          56
                57          57
                58          58
                59          59
                60          60
                61          61
                62          62
                63          63
                64          64
                65          65
                66          66
                67          67
                68          68
                69          69
                70          70
                71          71
                72          72
                73          73
                74          74
                75          75
                76          76
                77          77
                78          78
                79          79
                80          80
                81          81
                82          82
                83          83
                84          84
                85          85
                86          86
                87          87
                88          88
                89          89
                90          90
                91          91
                92          92
                93          93
                94          94
                95          95
                96          96
                97          97
                98          98
                99          99
               100         100
               101         101
               102         102
               103         103
               104         104
               105         105
               106         106
               107         107
               108         108
               109         109
               110         110
               111         111
               112         112
               113         113
               114         114
               115         115
               116         116
               117         117
               118         118
               119         119
               120         120
               121         121
               122         122
               123         123
               124         124
               125         125
               126         126
               127         127
               128         128
               129         129
               130         130
               131         131
               132         132
               133         133
               134         134
               135         135
               136         136
               137         137
               138         138
               139         139
               140         140
               141         141
               142         142
               143         143
               144         144
               145         145
               146         146
               147         147
               148         148
               149         149
               150         150
               151         151
               152         152
               153         153
               154         154
               155         155
               156         156
               157         157
               158         158
               159         159
               160         160
               161         161
               162         162
               163         163
               164         164
               165         165
               166         166
               167         167
               168         168
               169         169
               170         170
               171         171
               172         172
               173         173
               174         174
               175         175
               176         176
               177         177
               178         178
               179         179
               180         180
               181         181
               182         182
               183         183
               184         184
               185         185
               186         186
               187         187
               188         188
               189         189
               190         190
               191         191
               192         192
               193         193
               194         194
               195         195
               196         196
               197         197
               198         198
               199         199
               200         200
               201         201
               202         202
               203         203
               204         204
               205         205
               206         206
               207         207
               208         208
               209         209
               210         210
               211         211
               212         212
               213         213
               214         214
               215         215
               216         216

----------------------------------------------------------------------------------------

 
 
 KPOINTS: Gamma-point only                        

Automatic generation of k-mesh.
 Grid dimensions read from file:
 generate k-points for:    1    1    1

 Generating k-lattice:

  Cartesian coordinates                     Fractional coordinates (reciprocal lattice)
     0.082788993  0.000000000  0.000000000     1.000000000  0.000000000  0.000000000
     0.000000000  0.082788993  0.000000000     0.000000000  1.000000000  0.000000000
     0.000000000  0.000000000  0.082788993     0.000000000  0.000000000  1.000000000

  Length of vectors
     0.082788993  0.082788993  0.082788993

  Shift w.r.t. Gamma in fractional coordinates (k-lattice)
     0.000000000  0.000000000  0.000000000

 
 Subroutine IBZKPT returns following result:
 ===========================================
 
 Found      1 irreducible k-points:
 
 Following reciprocal coordinates:
            Coordinates               Weight
  0.000000  0.000000  0.000000      1.000000
 
 Following cartesian coordinates:
            Coordinates               Weight
  0.000000  0.000000  0.000000      1.000000
 


--------------------------------------------------------------------------------------------------------




 Dimension of arrays:
   k-points           NKPTS =      1   k-points in BZ     NKDIM =      1   number of bands    NBANDS=    757
   number of dos      NEDOS =    301   number of ions     NIONS =    216
   non local maximal  LDIM  =      4   non local SUM 2l+1 LMDIM =      8
   total plane-waves  NPLWV = 512000
   max r-space proj   IRMAX =      1   max aug-charges    IRDMAX=   3893
   dimension x,y,z NGX =    80 NGY =   80 NGZ =   80
   dimension x,y,z NGXF=   160 NGYF=  160 NGZF=  160
   support grid    NGXF=   160 NGYF=  160 NGZF=  160
   ions per type =             108 108
   NGX,Y,Z   is equivalent  to a cutoff of  11.01, 11.01, 11.01 a.u.
   NGXF,Y,Z  is equivalent  to a cutoff of  22.02, 22.02, 22.02 a.u.

 SYSTEM =  Si                                      
 POSCAR =  Li   F                                  

 Startparameter for this run:
   NWRITE =      2    write-flag & timer
   PREC   = accura    normal or accurate (medium, high low for compatibility)
   ISTART =      1    job   : 0-new  1-cont  2-samecut
   ICHARG =      2    charge: 1-file 2-atom 10-const
   ISPIN  =      2    spin polarized calculation?
   LNONCOLLINEAR =      F non collinear calculations
   LSORBIT =      F    spin-orbit coupling
   INIWAV =      1    electr: 0-lowe 1-rand  2-diag
   LASPH  =      F    aspherical Exc in radial PAW
 Electronic Relaxation 1
   ENCUT  =  400.0 eV  29.40 Ry    5.42 a.u.  19.70 19.70 19.70*2*pi/ulx,y,z
   ENINI  =  400.0     initial cutoff
   ENAUG  =  628.9 eV  augmentation charge cutoff
   NELM   =     20;   NELMIN=  2; NELMDL=  0     # of ELM steps 
   EDIFF  = 0.1E-09   stopping-criterion for ELM
   LREAL  =      F    real-space projection
   NLSPLINE    = F    spline interpolate recip. space projectors
   LCOMPAT=      F    compatible to vasp.4.4
   GGA_COMPAT  = T    GGA compatible to vasp.4.4-vasp.4.6
   LMAXPAW     = -100 max onsite density
   LMAXMIX     =    2 max onsite mixed and CHGCAR
   VOSKOWN=      0    Vosko Wilk Nusair interpolation
   ROPT   =    0.00000   0.00000
 Ionic relaxation
   EDIFFG = -.1E-01   stopping-criterion for IOM
   NSW    =    500    number of steps for IOM
   NBLOCK =      1;   KBLOCK =    500    inner block; outer block 
   IBRION =      3    ionic relax: 0-MD 1-quasi-New 2-CG
   NFREE  =      0    steps in history (QN), initial steepest desc. (CG)
   ISIF   =      0    stress and relaxation
   IWAVPR =     11    prediction:  0-non 1-charg 2-wave 3-comb
   ISYM   =      2    0-nonsym 1-usesym 2-fastsym
   LCORR  =      T    Harris-Foulkes like correction to forces

   POTIM  = 0.0000    time-step for ionic-motion
   TEIN   =    0.0    initial temperature
   TEBEG  =    0.0;   TEEND  =   0.0 temperature during run
   SMASS  =  -3.00    Nose mass-parameter (am)
   estimated Nose-frequenzy (Omega)   =  0.10E-29 period in steps = 0.00E+00 mass=  -0.333E-26a.u.
   SCALEE = 1.0000    scale energy and forces
   NPACO  =    256;   APACO  = 10.0  distance and # of slots for P.C.
   PSTRESS=    0.0 pullay stress

  Mass of Ions in am
   POMASS =  19.00  7.01
  Ionic Valenz
   ZVAL   =   7.00  3.00
  Atomic Wigner-Seitz radii
   RWIGS  =  -1.00 -1.00
  virtual crystal weights 
   VCA    =   1.00  1.00
   NELECT =    1080.0000    total number of electrons
   NUPDOWN=      -1.0000    fix difference up-down

 DOS related values:
   EMIN   =  10.00;   EMAX   =-10.00  energy-range for DOS
   EFERMI =   0.00;   METHOD = LEGACY      
   ISMEAR =     0;   SIGMA  =   0.01  broadening in eV -4-tet -1-fermi 0-gaus

 Electronic relaxation 2 (details)
   IALGO  =     38    algorithm
   LDIAG  =      T    sub-space diagonalisation (order eigenvalues)
   LSUBROT=      F    optimize rotation matrix (better conditioning)
   TURBO    =      0    0=normal 1=particle mesh
   IRESTART =      0    0=no restart 2=restart with 2 vectors
   NREBOOT  =      0    no. of reboots
   NMIN     =      0    reboot dimension
   EREF     =   0.00    reference energy to select bands
   IMIX   =      4    mixing-type and parameters
     AMIX     =   0.40;   BMIX     =  1.00
     AMIX_MAG =   1.60;   BMIX_MAG =  1.00
     AMIN     =   0.10
     WC   =   100.;   INIMIX=   1;  MIXPRE=   1;  MAXMIX= -45

 Intra band minimization:
   WEIMIN = 0.0010     energy-eigenvalue tresh-hold
   EBREAK =  0.33E-13  absolut break condition
   DEPER  =   0.30     relativ break condition  

   TIME   =   0.40     timestep for ELM

  volume/ion in A,a.u.               =       8.16        55.06
  Fermi-wavevector in a.u.,A,eV,Ry     =   1.390557  2.627771 26.308875  1.933648
  Thomas-Fermi vector in A             =   2.514480
 
 Write flags
   LWAVE        =      T    write WAVECAR
   LDOWNSAMPLE  =      F    k-point downsampling of WAVECAR
   LCHARG       =      T    write CHGCAR
   LVTOT        =      F    write LOCPOT, total local potential
   LVHAR        =      F    write LOCPOT, Hartree potential only
   LELF         =      F    write electronic localiz. function (ELF)
   LORBIT       =      0    0 simple, 1 ext, 2 COOP (PROOUT), +10 PAW based schemes


 Dipole corrections
   LMONO  =      F    monopole corrections only (constant potential shift)
   LDIPOL =      F    correct potential (dipole corrections)
   IDIPOL =      0    1-x, 2-y, 3-z, 4-all directions 
   EPSILON=  1.0000000 bulk dielectric constant

 Exchange correlation treatment:
   GGA     =    --    GGA type
   LEXCH   =     8    internal setting for exchange type
   LIBXC   =     F    Libxc                    
   VOSKOWN =     0    Vosko Wilk Nusair interpolation
   LHFCALC =     F    Hartree Fock is set to
   LHFONE  =     F    Hartree Fock one center treatment
   AEXX    =    0.0000 exact exchange contribution

 Linear response parameters
   LEPSILON=     F    determine dielectric tensor
   LRPA    =     F    only Hartree local field effects (RPA)
   LNABLA  =     F    use nabla operator in PAW spheres
   LVEL    =     F    velocity operator in full k-point grid
   CSHIFT  =0.1000    complex shift for real part using Kramers Kronig
   OMEGAMAX=  -1.0    maximum frequency
   DEG_THRESHOLD= 0.2000000E-02 threshold for treating states as degnerate
   RTIME   =   -0.100 relaxation time in fs
  (WPLASMAI=    0.000 imaginary part of plasma frequency in eV, 0.658/RTIME)
   DFIELD  = 0.0000000 0.0000000 0.0000000 field for delta impulse in time
 
  Optional k-point grid parameters
   LKPOINTS_OPT  =     F    use optional k-point grid
   KPOINTS_OPT_MODE=     1    mode for optional k-point grid
 
 Orbital magnetization related:
   ORBITALMAG=     F  switch on orbital magnetization
   LCHIMAG   =     F  perturbation theory with respect to B field
   DQ        =  0.001000  dq finite difference perturbation B field
   LLRAUG    =     F  two centre corrections for induced B field
   LBONE     =     F  B-component reconstruction in AE one-centre
   LVGVCALC  =     T  calculate vGv susceptibility
   LVGVAPPL  =     F  apply vGv susceptibility instead of pGv for G=0

 Random number generation:
   RANDOM_GENERATOR = DEFAULT
   PCG_SEED         = not used


--------------------------------------------------------------------------------------------------------


 quickmin algorithm: (dynamic with friction)
 charge density and potential will be updated during run
 spin polarized calculation
 Variant of blocked Davidson
 Davidson routine will perform the subspace rotation
 perform sub-space diagonalisation
    after iterative eigenvector-optimisation
 modified Broyden-mixing scheme, WC =      100.0
 initial mixing is a Kerker type mixing with AMIX =  0.4000 and BMIX =      1.0000
 Hartree-type preconditioning will be used
 using additional bands           217
 reciprocal scheme for non local part
 calculate Harris-corrections to forces 
   (improved forces if not selfconsistent)
 use gradient corrections 
 use of overlap-Matrix (Vanderbilt PP)
 Gauss-broadening in eV      SIGMA  =   0.01


--------------------------------------------------------------------------------------------------------


  energy-cutoff  :      400.00
  volume of cell :     1762.31
      direct lattice vectors                 reciprocal lattice vectors
    12.078900337  0.000000000  0.000000000     0.082788993  0.000000000  0.000000000
     0.000000000 12.078900337  0.000000000     0.000000000  0.082788993  0.000000000
     0.000000000  0.000000000 12.078900337     0.000000000  0.000000000  0.082788993

  length of vectors
    12.078900337 12.078900337 12.078900337     0.082788993  0.082788993  0.082788993


 
 old parameters found on file WAVECAR:
  energy-cutoff  :      400.00
  volume of cell :     1762.31
      direct lattice vectors                 reciprocal lattice vectors
    12.078900337  0.000000000  0.000000000     0.082788993  0.000000000  0.000000000
     0.000000000 12.078900337  0.000000000     0.000000000  0.082788993  0.000000000
     0.000000000  0.000000000 12.078900337     0.000000000  0.000000000  0.082788993

  length of vectors

 
 k-points in units of 2pi/SCALE and weight: Gamma-point only                        
   0.00000000  0.00000000  0.00000000       1.000
 
 k-points in reciprocal lattice and weights: Gamma-point only                        
   0.00000000  0.00000000  0.00000000       1.000
 
 position of ions in fractional coordinates (direct lattice) 
   0.00010528  0.99998754  0.99998854
   0.00002700  0.99992950  0.33328818
   0.00003022  0.99994036  0.66664527
   0.00002738  0.33328790  0.99992947
   0.99980201  0.33344580  0.33344836
   0.00038212  0.33313323  0.66657056
   0.00002989  0.66664507  0.99994164
   0.00038031  0.66656783  0.33313341
   0.00079089  0.66624773  0.66624764
   0.33337767  0.99998970  0.99999079
   0.33336912  0.00005570  0.33323628
   0.33329875  0.00009418  0.66668991
   0.33336861  0.33323623  0.00003872
   0.33327188  0.33329577  0.33329704
   0.33354671  0.33301942  0.66670327
   0.33329908  0.66669001  0.00009542
   0.33354849  0.66670199  0.33301951
   0.33350155  0.66676826  0.66676802
   0.66669012  0.99992548  0.99992573
   0.66660717  0.99998233  0.33328300
   0.66634419  0.00034092  0.66674978
   0.66660626  0.33328097  0.00014982
   0.66674917  0.33324541  0.33326135
   0.66650223  0.33319877  0.66655474
   0.66634419  0.66674711  0.00034239
   0.66650241  0.66653790  0.33320170
   0.66549452  0.66696945  0.66697070
   0.99994428  0.16661419  0.16661592
   0.99983590  0.16637656  0.49993330
   0.00003594  0.16660652  0.83338093
   0.99983327  0.49993513  0.16637666
   0.99640059  0.50093523  0.50093484
   0.00015736  0.49983230  0.83297120
   0.00003360  0.83338088  0.16660567
   0.00015467  0.83297106  0.49983409
   0.99970029  0.83335798  0.83335851
   0.33337367  0.16660225  0.16659518
   0.33346327  0.16642017  0.49995499
   0.33341787  0.16654638  0.83342085
   0.33346575  0.49995136  0.16641640
   0.33549228  0.49988791  0.49988819
   0.33365971  0.49987441  0.83389162
   0.33342022  0.83342472  0.16655043
   0.33366238  0.83389537  0.49987119
   0.33332345  0.83344960  0.83345014
   0.66663046  0.16652764  0.16661784
   0.66650093  0.16647318  0.49987159
   0.66658850  0.16671447  0.83345652
   0.66650123  0.49992911  0.16651365
   0.66669010  0.49961100  0.49960545
   0.66636247  0.50022414  0.83369126
   0.66658861  0.83341740  0.16666553
   0.66636281  0.83365215  0.50027616
   0.66720329  0.83284542  0.83284593
   0.16667746  0.00001058  0.16660654
   0.16667164  0.00002349  0.49991610
   0.16665791  0.99997135  0.83338564
   0.16659096  0.33314324  0.16644572
   0.16644666  0.33132052  0.50015605
   0.16671707  0.33301525  0.83352790
   0.16676515  0.66687173  0.16632307
   0.16786736  0.66900679  0.49970873
   0.16664360  0.66679333  0.83354885
   0.50000393  0.00000621  0.16659762
   0.49999144  0.00009151  0.49997964
   0.50006824  0.99992663  0.83336773
   0.49993588  0.33324064  0.16665590
   0.50011799  0.33299645  0.49987666
   0.50006431  0.33325164  0.83346245
   0.49992584  0.66669272  0.16662789
   0.50015146  0.66685719  0.49990225
   0.49961001  0.66677520  0.83375452
   0.83338982  0.00004299  0.16660619
   0.83330099  0.99993620  0.49995053
   0.83334252  0.00035273  0.83372259
   0.83338615  0.33306593  0.16644350
   0.83306340  0.33244036  0.49957790
   0.83334950  0.33329002  0.83343157
   0.83335909  0.66668458  0.16667009
   0.83189526  0.66750255  0.49951502
   0.83330356  0.66690691  0.83434910
   0.16667725  0.16660588  0.00001112
   0.16658560  0.16644860  0.33314419
   0.16676526  0.16632298  0.66687200
   0.16667163  0.49991569  0.00002347
   0.16644637  0.50015538  0.33132139
   0.16786757  0.49970784  0.66900773
   0.16665803  0.83338501  0.99997156
   0.16672216  0.83353141  0.33301573
   0.16664371  0.83354821  0.66679423
   0.50000590  0.16659733  0.00000245
   0.49999599  0.16662169  0.33324002
   0.49992521  0.16662542  0.66669418
   0.49999133  0.49998001  0.00009015
   0.50012068  0.49987946  0.33299578
   0.50014879  0.49990461  0.66685631
   0.50006644  0.83336763  0.99992877
   0.50000719  0.83342727  0.33325237
   0.49960860  0.83375440  0.66677356
   0.83338800  0.16660612  0.00003886
   0.83333345  0.16640600  0.33306488
   0.83335989  0.16666748  0.66668605
   0.83330110  0.49995076  0.99993440
   0.83306084  0.49958109  0.33243937
   0.83189773  0.49951785  0.66750151
   0.83334413  0.83372254  0.00035493
   0.83339959  0.83339257  0.33329095
   0.83330488  0.83434897  0.66690502
   0.00012047  0.16667687  0.00002682
   0.00017421  0.16659721  0.33333720
   0.00013186  0.16665339  0.66656265
   0.00001494  0.49995367  0.99988611
   0.00048889  0.49992535  0.33337535
   0.00375758  0.49803268  0.66705892
   0.00025361  0.83329955  0.00020617
   0.00014678  0.83346172  0.33307815
   0.00016496  0.83319149  0.66649755
   0.33332235  0.16666178  0.00004194
   0.33319382  0.16677502  0.33334619
   0.33335138  0.16661109  0.66658230
   0.33340718  0.49989060  0.00014237
   0.33283098  0.49991134  0.33381146
   0.33320156  0.49986902  0.66608807
   0.33325398  0.83335871  0.00001938
   0.33336597  0.83335099  0.33327086
   0.33325572  0.83336608  0.66657989
   0.66661213  0.16670406  0.00003279
   0.66653823  0.16652772  0.33320423
   0.66658239  0.16671922  0.66669319
   0.66657200  0.49978306  0.00025996
   0.66605287  0.49995479  0.33255941
   0.66627435  0.49991102  0.66671978
   0.66656528  0.83344229  0.00024594
   0.66661170  0.83330483  0.33337813
   0.66495320  0.83492694  0.66624719
   0.00012016  0.00002834  0.16667706
   0.00001507  0.99988745  0.49995472
   0.00025400  0.00020538  0.83329988
   0.00018725  0.33333684  0.16660126
   0.00048711  0.33337512  0.49992585
   0.00013192  0.33307773  0.83346585
   0.00013323  0.66656191  0.16665348
   0.00375947  0.66705846  0.49803364
   0.00016528  0.66649733  0.83319183
   0.33332259  0.00004896  0.16666152
   0.33340703  0.00014764  0.49989170
   0.33325366  0.00001736  0.83335861
   0.33318183  0.33334679  0.16677165
   0.33283266  0.33381204  0.49991115
   0.33337969  0.33327030  0.83334881
   0.33335006  0.66658103  0.16661177
   0.33319990  0.66608854  0.49986915
   0.33325543  0.66658097  0.83336600
   0.66661226  0.99997960  0.16670724
   0.66657211  0.00022067  0.49978474
   0.66656523  0.00025742  0.83344692
   0.66653687  0.33319422  0.16660877
   0.66605304  0.33254931  0.49996153
   0.66661300  0.33337833  0.83336879
   0.66658228  0.66669737  0.16671416
   0.66627422  0.66671025  0.49992094
   0.66495314  0.66623343  0.83493160
   0.16668694  0.16673133  0.16673055
   0.16671924  0.16619723  0.49989585
   0.16676464  0.16660763  0.83336569
   0.16671954  0.49989473  0.16619753
   0.13233202  0.51221922  0.51221912
   0.16732130  0.49989679  0.83411252
   0.16676488  0.83336534  0.16660911
   0.16732162  0.83411211  0.49989641
   0.16665099  0.83329420  0.83329464
   0.49990064  0.16665796  0.16666114
   0.49972173  0.16666753  0.49990706
   0.49993822  0.16672699  0.83336846
   0.49971814  0.49990567  0.16666782
   0.50038161  0.49986693  0.49987142
   0.49965527  0.49976399  0.83334843
   0.49993549  0.83336774  0.16672433
   0.49965153  0.83334767  0.49976759
   0.49968432  0.83342428  0.83342475
   0.83337121  0.16649602  0.16649975
   0.83337384  0.16648437  0.49991764
   0.83335159  0.16676793  0.83335141
   0.83337701  0.49991624  0.16648467
   0.83138984  0.49676902  0.49677367
   0.83334263  0.49996057  0.83337625
   0.83335416  0.83335071  0.16676486
   0.83334604  0.83337554  0.49996430
   0.83377267  0.83493928  0.83493972
   0.16676521  0.00002583  0.00002650
   0.16674494  0.00003106  0.33317818
   0.16671355  0.00000828  0.66670181
   0.16674494  0.33317769  0.00002896
   0.16666154  0.33383226  0.33383113
   0.16754542  0.33276128  0.66635634
   0.16671354  0.66670129  0.00000916
   0.16754641  0.66635716  0.33276172
   0.16731895  0.66636700  0.66636734
   0.49994656  0.00003999  0.00003856
   0.49991197  0.00003694  0.33326098
   0.49952700  0.00043990  0.66664133
   0.49991318  0.33326075  0.00007363
   0.49973897  0.33329967  0.33330885
   0.49982143  0.33328496  0.66659917
   0.49952699  0.66664071  0.00043721
   0.49981096  0.66659205  0.33328532
   0.49956992  0.66661910  0.66662111
   0.83341928  0.00040448  0.00040301
   0.83335739  0.99996554  0.33326793
   0.83333874  0.00027686  0.66669277
   0.83335603  0.33326770  0.00000645
   0.83341751  0.33235793  0.33236815
   0.83339428  0.33335627  0.66659663
   0.83333874  0.66669218  0.00027386
   0.83340383  0.66658879  0.33335649
   0.82828085  0.67169450  0.67169667
 
 position of ions in cartesian coordinates  (Angst):
   0.00127165 12.07874988 12.07876195
   0.00032609 12.07804877  4.02575474
   0.00036506 12.07818000  8.05234180
   0.00033071  4.02575128 12.07804845
  12.07650879  4.02765858  4.02768946
   0.00461560  4.02388309  8.05143930
   0.00036099  8.05233937 12.07819540
   0.00459374  8.05140637  4.02388528
   0.00955310  8.04753988  8.04753880
   4.02683561 12.07877587 12.07878914
   4.02673237  0.00067275  4.02512786
   4.02588244  0.00113755  8.05288095
   4.02672624  4.02512721  0.00046775
   4.02555782  4.02584635  4.02586169
   4.02887750  4.02250833  8.05304241
   4.02588637  8.05288221  0.00115259
   4.02889892  8.05302686  4.02250944
   4.02833204  8.05382730  8.05382448
   8.05288347 12.07800026 12.07800318
   8.05188161 12.07868695  4.02569219
   8.04870507  0.00411798  8.05360409
   8.05187052  4.02566759  0.00180966
   8.05359678  4.02523810  4.02543063
   8.05061401  4.02467474  8.05124823
   8.04870501  8.05357187  0.00413572
   8.05061618  8.05104492  4.02471018
   8.03844203  8.05625747  8.05627260
  12.07822726  2.01251620  2.01253711
  12.07691823  2.00964590  6.03864452
   0.00043415  2.01242354 10.06632517
  12.07688647  6.03866655  2.00964710
  12.03542337  6.05074668  6.05074195
   0.00190070  6.03742451 10.06137617
   0.00040584 10.06632456  2.01241329
   0.00186828 10.06137444  6.03744620
  12.07528016 10.06604801 10.06605436
   4.02678739  2.01237199  2.01228663
   4.02786965  2.01017264  6.03890647
   4.02732121  2.01169714 10.06680741
   4.02789956  6.03886270  2.01012714
   4.05237785  6.03809628  6.03809963
   4.03024237  6.03793318 10.07249371
   4.02734956 10.06685416  2.01174604
   4.03027459 10.07253912  6.03789432
   4.02618070 10.06715465 10.06716122
   8.05216293  2.01147073  2.01256026
   8.05059836  2.01081292  6.03789917
   8.05165609  2.01372748 10.06723822
   8.05060198  6.03859395  2.01130173
   8.05288323  6.03475146  6.03468447
   8.04892591  6.04215755 10.07007359
   8.05165742 10.06676572  2.01313629
   8.04892994 10.06960125  6.04278587
   8.05908210 10.05985683 10.05986299
   2.01328049  0.00012777  2.01242377
   2.01321016  0.00028369  6.03843670
   2.01304427 12.07855427 10.06638209
   2.01223563  4.02400405  2.01048120
   2.01049263  4.00198750  6.04133510
   2.01375891  4.02245801 10.06810048
   2.01433968  8.05507714  2.00899984
   2.02765314  8.08086638  6.03593196
   2.01287148  8.05413020 10.06835351
   6.03949761  0.00007505  2.01231600
   6.03934679  0.00110532  6.03920422
   6.04027443 12.07801411 10.06616582
   6.03867566  4.02518047  2.01302006
   6.04087532  4.02223088  6.03796040
   6.04022698  4.02531331 10.06730989
   6.03855443  8.05291497  2.01268169
   6.04127959  8.05490153  6.03826950
   6.03473953  8.05391122 10.07083775
  10.06643254  0.00051926  2.01241953
  10.06535965 12.07812965  6.03885261
  10.06586122  0.00426061 10.07045207
  10.06638830  4.02307021  2.01045439
  10.06248976  4.01551400  6.03435164
  10.06594550  4.02577695 10.06693685
  10.06606140  8.05281663  2.01319139
  10.04837994  8.06269678  6.03359212
  10.06539069  8.05550206 10.07801957
   2.01327795  2.01241587  0.00013437
   2.01217088  2.01051604  4.02401544
   2.01434099  2.00899868  8.05508047
   2.01321002  6.03843184  0.00028349
   2.01048908  6.04132699  4.00199807
   2.02765569  6.03592122  8.08087766
   2.01304572 10.06637444 12.07855683
   2.01382030 10.06814277  4.02246387
   2.01287273 10.06834579  8.05414106
   6.03952139  2.01231252  0.00002956
   6.03940172  2.01260673  4.02517299
   6.03854679  2.01265186  8.05293259
   6.03934542  6.03920874  0.00108888
   6.04090788  6.03799420  4.02222281
   6.04124739  6.03829800  8.05489088
   6.04025275 10.06616458 12.07803990
   6.03953701 10.06688495  4.02532212
   6.03472252 10.07083631  8.05389134
  10.06641054  2.01241871  0.00046943
  10.06575163  2.01000146  4.02305747
  10.06607101  2.01315994  8.05283438
  10.06536094  6.03885539 12.07810801
  10.06245888  6.03439016  4.01550197
  10.04840976  6.03362637  8.06268426
  10.06588072 10.07045152  0.00428716
  10.06655053 10.06646583  4.02578812
  10.06540659 10.07801804  8.05547923
   0.00145510  2.01327327  0.00032393
   0.00210427  2.01231113  4.02634684
   0.00159278  2.01298974  8.05134378
   0.00018043  6.03889061 12.07752464
   0.00590530  6.03854849  4.02680760
   0.04538737  6.01568716  8.05733818
   0.00306329 10.06534227  0.00249033
   0.00177289 10.06730105  4.02321780
   0.00199255 10.06403696  8.05055749
   4.02616748  2.01309102  0.00050654
   4.02461494  2.01445879  4.02645541
   4.02651805  2.01247879  8.05158117
   4.02719212  6.03812878  0.00171964
   4.02023220  6.03837926  4.03207537
   4.02470838  6.03786813  8.04561136
   4.02534160 10.06605677  0.00023403
   4.02669429 10.06596350  4.02554555
   4.02536267 10.06614587  8.05155211
   8.05194154  2.01360172  0.00039611
   8.05104889  2.01147167  4.02474072
   8.05158223  2.01378484  8.05292060
   8.05145671  6.03682982  0.00313997
   8.04518620  6.03890409  4.01695199
   8.04786150  6.03837543  8.05324173
   8.05137562 10.06706634  0.00297069
   8.05193624 10.06540604  4.02684125
   8.03190342 10.08499936  8.04753339
   0.00145141  0.00034235  2.01327563
   0.00018208 12.07754088  6.03890322
   0.00306809  0.00248077 10.06534617
   0.00226172  4.02634246  2.01235999
   0.00588372  4.02680483  6.03855452
   0.00159347  4.02321272 10.06735097
   0.00160926  8.05133484  2.01299080
   0.04541032  8.05733270  6.01569870
   0.00199637  8.05055483 10.06404113
   4.02617035  0.00059137  2.01308783
   4.02719026  0.00178331  6.03814199
   4.02533772  0.00020964 10.06605554
   4.02447009  4.02646269  2.01441820
   4.02025256  4.03208237  6.03837699
   4.02686007  4.02553873 10.06593719
   4.02650214  8.05156588  2.01248695
   4.02468840  8.04561708  6.03786965
   4.02535918  8.05156511 10.06614489
   8.05194307 12.07865393  2.01364017
   8.05145809  0.00266544  6.03685010
   8.05137496  0.00310940 10.06712232
   8.05103237  4.02461976  2.01245069
   8.04518831  4.01683003  6.03898555
   8.05195200  4.02684367 10.06617859
   8.05158097  8.05297112  2.01372368
   8.04785984  8.05312666  6.03849523
   8.03190269  8.04736719 10.08505553
   2.01339498  2.01393118  2.01392168
   2.01378507  2.00747976  6.03819214
   2.01433352  2.01243699 10.06614115
   2.01378875  6.03817859  2.00748334
   1.59842533  6.18704497  6.18704370
   2.02105730  6.03820346 10.07516204
   2.01433633 10.06613684  2.01245489
   2.02106118 10.07515704  6.03819897
   2.01296073 10.06527758 10.06528296
   6.03824995  2.01304487  2.01308334
   6.03608903  2.01316050  6.03832751
   6.03870392  2.01387874 10.06617453
   6.03604557  6.03831074  2.01316393
   6.04405960  6.03784281  6.03789702
   6.03528624  6.03659946 10.06593265
   6.03867095 10.06616583  2.01384654
   6.03524099 10.06592348  6.03664286
   6.03563709 10.06684879 10.06685444
  10.06620782  2.01108887  2.01113384
  10.06623958  2.01094808  6.03845537
  10.06597083  2.01437322 10.06596867
  10.06627781  6.03843842  2.01095169
  10.04227508  6.00042348  6.00047963
  10.06586261  6.03897384 10.06626863
  10.06600188 10.06596013  2.01433609
  10.06590372 10.06626003  6.03901901
  10.07105696 10.08514834 10.08515361
   2.01434031  0.00031198  0.00032006
   2.01409547  0.00037518  4.02442599
   2.01371634  0.00010001  8.05302470
   2.01409554  4.02442010  0.00034983
   2.01308810  4.03232659  4.03231297
   2.02376440  4.01939028  8.04885183
   2.01371622  8.05301844  0.00011059
   2.02377634  8.04886176  4.01939567
   2.02102894  8.04898058  8.04898466
   6.03880472  0.00048309  0.00046579
   6.03838690  0.00044621  4.02542622
   6.03373690  0.00531356  8.05229414
   6.03840150  4.02542340  0.00088937
   6.03629717  4.02589346  4.02600433
   6.03729319  4.02571588  8.05178491
   6.03373676  8.05228673  0.00528097
   6.03716680  8.05169896  4.02572011
   6.03425529  8.05202568  8.05204993
  10.06678845  0.00488571  0.00486792
  10.06604092 12.07848408  4.02551014
  10.06581564  0.00334414  8.05291554
  10.06602439  4.02550735  0.00007791
  10.06676701  4.01451826  4.01464176
  10.06648650  4.02657715  8.05175427
  10.06581561  8.05290836  0.00330787
  10.06660179  8.05165953  4.02657988
  10.00472187  8.11333088  8.11335714
 


--------------------------------------------------------------------------------------------------------


 k-point   1 :   0.0000 0.0000 0.0000  plane waves:   31919

 maximum and minimum number of plane-waves per node :     31919    31919

 maximum number of plane-waves:     31919
 maximum index in each direction: 
   IXMAX=   19   IYMAX=   19   IZMAX=   19
   IXMIN=  -19   IYMIN=  -19   IZMIN=  -19


 serial   3D FFT for wavefunctions
 parallel 3D FFT for charge:
    minimum data exchange during FFTs selected (reduces bandwidth)


 total amount of memory used by VASP MPI-rank0  1466161. kBytes
=======================================================================

   base      :      30000. kBytes
   nonl-proj :     114397. kBytes
   fftplans  :     141100. kBytes
   grid      :     372121. kBytes
   one-center:       1327. kBytes
   wavefun   :     807216. kBytes
 
     INWAV:  cpu time      0.4025: real time      0.9462
 Broyden mixing: mesh for mixing (old mesh)
   NGX = 39   NGY = 39   NGZ = 39
  (NGX  =160   NGY  =160   NGZ  =160)
  gives a total of  59319 points

 initial charge density was supplied:
 charge density of overlapping atoms calculated
 number of electron    1080.0000000 magnetization     216.0000000
 keeping initial charge density in first step


--------------------------------------------------------------------------------------------------------


 Maximum index for augmentation-charges          3660 (set IRDMAX)


--------------------------------------------------------------------------------------------------------


 First call to EWALD:  gamma=   0.147
 Maximum number of real-space cells 3x 3x 3
 Maximum number of reciprocal cells 3x 3x 3

    FEWALD:  cpu time      0.2518: real time      0.2526


--------------------------------------- Ionic step        1  -------------------------------------------




--------------------------------------- Iteration      1(   1)  ---------------------------------------


    POTLOK:  cpu time      0.1293: real time      0.1398
    SETDIJ:  cpu time      0.7043: real time      0.7066
     EDDAV:  cpu time      9.3536: real time      9.3886
       DOS:  cpu time      0.0003: real time      0.0003
    CHARGE:  cpu time      0.4690: real time      0.4709
    MIXING:  cpu time      0.0633: real time      0.0636
    --------------------------------------------
      LOOP:  cpu time     10.7199: real time     10.7698

 eigenvalue-minimisations  :  3028
 total energy-change (2. order) :-0.9591572E+03  (-0.1100467E+03)
 number of electron    1079.9999967 magnetization     142.4005295
 augmentation part      257.3197542 magnetization     143.8504918

 Broyden mixing:
  rms(total) = 0.13387E+02    rms(broyden)= 0.13376E+02
  rms(prec ) = 0.13724E+02
  weight for this iteration     100.00

 Free energy of the ion-electron system (eV)
  ---------------------------------------------------
  alpha Z        PSCENC =      2167.32059008
  Ewald energy   TEWEN  =    -60182.36296256
  -Hartree energ DENC   =    -22988.98249809
  -exchange      EXHF   =         0.00000000
  -V(xc)+E(xc)   XCENC  =      5435.41421513
  PAW double counting   =     53780.49107149   -55988.61141440
  entropy T*S    EENTRO =        -0.00000000
  eigenvalues    EBANDS =    -16277.28399605
  atomic energy  EATOM  =     93094.85783989
  Solvation  Ediel_sol  =         0.00000000
  ---------------------------------------------------
  free energy    TOTEN  =      -959.15715450 eV

  energy without entropy =     -959.15715450  energy(sigma->0) =     -959.15715450


--------------------------------------------------------------------------------------------------------




--------------------------------------- Iteration      1(   2)  ---------------------------------------


    POTLOK:  cpu time      0.0993: real time      0.1002
    SETDIJ:  cpu time      0.7029: real time      0.7051
     EDDAV:  cpu time      9.5448: real time      9.5778
       DOS:  cpu time      0.0003: real time      0.0003
    CHARGE:  cpu time      0.4424: real time      0.4442
    MIXING:  cpu time      0.0652: real time      0.0655
    --------------------------------------------
      LOOP:  cpu time     10.8548: real time     10.8931

 eigenvalue-minimisations  :  3212
 total energy-change (2. order) : 0.4764594E+03  (-0.6244041E+02)
 number of electron    1079.9999967 magnetization     103.9686360
 augmentation part      256.4507680 magnetization      90.2219465

 Broyden mixing:
  rms(total) = 0.63769E+01    rms(broyden)= 0.63738E+01
  rms(prec ) = 0.66149E+01
  weight for this iteration     100.00

 eigenvalues of (default mixing * dielectric matrix)
  average eigenvalue GAMMA=   0.7417
  0.7417

 Free energy of the ion-electron system (eV)
  ---------------------------------------------------
[...]
      4.02436      2.01871      8.04659        -0.003619     -0.001846      0.006516
      4.02898      6.03788      0.00551        -0.009958      0.002472     -0.000608
      3.97401      6.04088      4.07075         0.020068      0.011495     -0.020427
      3.99567      6.04113      8.03532         0.027325      0.011158      0.046458
      4.03052     10.06652      0.00370        -0.004614      0.000202     -0.001510
      4.01848     10.06279      4.02927        -0.000333      0.007004     -0.000642
      4.03100     10.07525      8.05129        -0.014069     -0.006467      0.004581
      8.04304      2.01122     -0.00161         0.002034     -0.000930      0.000508
      8.03966      2.01198      4.02380         0.000733      0.000742      0.000720
      8.04017      2.01028      8.04957         0.001376      0.000394      0.003099
      8.03648      6.03726      0.00372         0.002023      0.000439     -0.000397
      8.03852      6.03476      4.02038        -0.000104      0.005805      0.007857
      8.05047      6.03760      8.05360        -0.008430      0.000881      0.003248
      8.04510     10.06481     -0.00121         0.001606     -0.000477     -0.002052
      8.04389     10.06377      4.02383        -0.001948      0.003968     -0.001041
      8.04797     10.06210      8.05221         0.001240     -0.000131     -0.001835
     -0.00247      0.01023      2.00165        -0.002436     -0.009449      0.009864
     -0.00872     12.10275      6.03299        -0.003018     -0.022120      0.005783
     -0.00307      0.00271     10.07287        -0.003135     -0.003718     -0.007506
     -0.00006      4.01543      2.01301        -0.008575      0.010091      0.002223
     -0.00451      4.00552      6.02480        -0.047918      0.022933      0.034477
     -0.00380      3.98311     10.10893        -0.010896      0.058271     -0.051731
     -0.00394      8.05565      2.00272        -0.009999      0.002987      0.015923
     -0.08465      8.20073      5.96216         0.051243     -0.226850      0.207978
     -0.00771      8.06036     10.08669        -0.007018     -0.009640     -0.023510
      4.02831      0.00122      2.01457        -0.003604      0.000103     -0.000319
      4.02898      0.00546      6.03793        -0.009956     -0.000609      0.002472
      4.03053      0.00365     10.06657        -0.004615     -0.001510      0.000202
      4.02089      4.03103      2.02150        -0.002222     -0.000924     -0.001909
      3.97401      4.07070      6.04093         0.020069     -0.020426      0.011495
      4.01848      4.02922     10.06284        -0.000332     -0.000642      0.007003
      4.02436      8.04654      2.01876        -0.003619      0.006516     -0.001846
      3.99567      8.03527      6.04118         0.027322      0.046460      0.011157
      4.03100      8.05123     10.07530        -0.014070      0.004581     -0.006468
      8.04304     12.07723      2.01127         0.002034      0.000508     -0.000932
      8.03648      0.00366      6.03731         0.002024     -0.000395      0.000437
      8.04510     -0.00126     10.06486         0.001606     -0.002051     -0.000478
      8.03966      4.02375      2.01203         0.000733      0.000722      0.000741
      8.03852      4.02033      6.03481        -0.000104      0.007862      0.005803
      8.04389      4.02378     10.06382        -0.001949     -0.001043      0.003971
      8.04017      8.04952      2.01033         0.001376      0.003099      0.000393
      8.05047      8.05355      6.03764        -0.008430      0.003245      0.000882
      8.04797      8.05216     10.06215         0.001239     -0.001833     -0.000131
      2.01758      2.01952      2.01957        -0.006457     -0.001292     -0.001291
      2.01403      2.01368      6.03505        -0.015394      0.012882      0.009831
      2.01758      2.01051     10.07019        -0.010081      0.001616      0.003423
      2.01403      6.03500      2.01373        -0.015395      0.009827      0.012883
      1.65655      6.30760      6.30766         0.727975     -0.566200     -0.566195
      2.00945      6.03531     10.10525        -0.018953      0.004075     -0.030045
      2.01758     10.07014      2.01056        -0.010081      0.003423      0.001615
      2.00945     10.10519      6.03536        -0.018958     -0.030045      0.004080
      2.01576     10.08851     10.08856        -0.007207     -0.011703     -0.011704
      6.03274      2.01369      2.01374         0.000210     -0.000354     -0.000355
      6.02459      2.02202      6.03721        -0.000725     -0.001545      0.001998
      6.03430      2.01594     10.06248        -0.000937     -0.002776      0.002368
      6.02459      6.03716      2.02207        -0.000726      0.002000     -0.001548
      6.02780      6.04119      6.04124        -0.006963      0.003894      0.003892
      6.02982      6.03804     10.05799         0.001493      0.001804      0.010734
      6.03430     10.06243      2.01599        -0.000936      0.002368     -0.002776
      6.02982     10.05794      6.03809         0.001493      0.010735      0.001806
      6.03735     10.06422     10.06427        -0.001574      0.000391      0.000390
     10.05485      2.01026      2.01032         0.002697      0.000071      0.000071
     10.05165      2.00902      6.03227        -0.000974      0.001812      0.006315
     10.05552      2.00572     10.06931         0.002514      0.003689      0.000301
     10.05165      6.03221      2.00907        -0.000975      0.006315      0.001812
     10.04101      6.02654      6.02658         0.005980      0.028665      0.028666
     10.03663      6.03424     10.09997         0.013251     -0.006020     -0.023252
     10.05552     10.06926      2.00577         0.002514      0.000299      0.003690
     10.03663     10.09992      6.03429         0.013250     -0.023249     -0.006022
     10.05976     10.06803     10.06808         0.001915     -0.006710     -0.006711
      2.01863      0.00596      0.00600        -0.006330     -0.001247     -0.001246
      2.01689      0.01076      4.01895        -0.010026     -0.003457      0.006506
      2.01513      0.01177      8.05847        -0.009859     -0.006015     -0.003122
      2.01689      4.01890      0.01081        -0.010026      0.006506     -0.003456
      2.00407      4.06324      4.06330        -0.009802     -0.020607     -0.020608
      2.00157      4.01439      8.04019        -0.016300      0.007889      0.051741
      2.01513      8.05842      0.01182        -0.009859     -0.003122     -0.006015
      2.00157      8.04013      4.01445        -0.016300      0.051745      0.007885
      2.00708      8.13305      8.13310        -0.071529     -0.074295     -0.074303
      6.03681     -0.00072     -0.00066        -0.000697     -0.000141     -0.000143
      6.03248     -0.00243      4.02652        -0.001101      0.003013     -0.000499
      6.03650      0.00056      8.05038        -0.002067     -0.001262      0.001751
      6.03248      4.02647     -0.00238        -0.001102     -0.000498      0.003014
      6.02325      4.03229      4.03234        -0.000055     -0.000940     -0.000940
      6.02614      4.03367      8.04467         0.001559     -0.005989      0.007558
      6.03650      8.05033      0.00061        -0.002067      0.001752     -0.001264
      6.02614      8.04462      4.03372         0.001558      0.007556     -0.005987
      6.03147      8.04597      8.04602         0.000372      0.009272      0.009273
     10.05598     -0.00068     -0.00063         0.003275     -0.001969     -0.001968
     10.05404     12.08601      4.01821         0.002645     -0.003985      0.001688
     10.05714      0.00379      8.05453         0.001255     -0.005130     -0.001996
     10.05404      4.01816      0.00716         0.002646      0.001689     -0.003984
     10.05537      4.01943      4.01948        -0.007860      0.004964      0.004963
     10.04659      4.00022      8.04860         0.006661      0.026194      0.018186
     10.05714      8.05448      0.00384         0.001255     -0.001995     -0.005131
     10.04659      8.04855      4.00027         0.006663      0.018183      0.026197
     10.07738      8.04949      8.04954        -0.017713     -0.000156     -0.000155
 -----------------------------------------------------------------------------------
    total drift:                               -0.015922     -0.005556     -0.005627


--------------------------------------------------------------------------------------------------------



  FREE ENERGIE OF THE ION-ELECTRON SYSTEM (eV)
  ---------------------------------------------------
  free  energy   TOTEN  =     -1056.67811515 eV

  energy  without entropy=    -1056.67811515  energy(sigma->0) =    -1056.67811515
 
 d Force =-0.6695028E-02[-0.693E-02,-0.646E-02]  d Energy =-0.6697429E-02 0.240E-05
 d Force =-0.2569148E+00[-0.263E+00,-0.250E+00]  d Ewald  =-0.2569151E+00 0.283E-06


--------------------------------------------------------------------------------------------------------


    POTLOK:  cpu time      0.8429: real time      0.8457


--------------------------------------------------------------------------------------------------------


 NEB: the previous image is higher in energy:  F
 NEB: the next image is higher in energy    :  T
 NEB: only next energy greater

 NEB: Tangent
 ----------------------------------------------
      0.00047     -0.00121     -0.00121
      0.00105      0.00675     -0.00972
      0.00212      0.00065      0.00474
      0.00105     -0.00972      0.00674
      0.00375     -0.02429     -0.02430
      0.00465     -0.03898      0.01045
      0.00212      0.00474      0.00065
      0.00465      0.01045     -0.03898
      0.04417     -0.02218     -0.02218
      0.00338     -0.00224     -0.00224
      0.00403     -0.00654     -0.00071
      0.00552     -0.00403      0.00040
      0.00403     -0.00071     -0.00654
      0.00922     -0.00657     -0.00657
     -0.00273      0.00318     -0.00076
      0.00552      0.00040     -0.00403
     -0.00273     -0.00076      0.00319
     -0.01062     -0.00485     -0.00485
      0.00049     -0.00106     -0.00106
      0.00236     -0.00501      0.00027
      0.00014     -0.00315      0.00078
      0.00236      0.00028     -0.00501
      0.00164     -0.00249     -0.00249
      0.00847      0.00384      0.00077
      0.00014      0.00078     -0.00315
      0.00847      0.00077      0.00384
      0.01719     -0.00344     -0.00344
      0.00022     -0.00730     -0.00730
     -0.00371     -0.01186     -0.00334
      0.00083     -0.01131      0.00750
     -0.00371     -0.00334     -0.01186
     -0.08234     -0.09813     -0.09814
     -0.00106     -0.00785      0.05351
      0.00083      0.00750     -0.01131
     -0.00107      0.05351     -0.00786
      0.00262      0.00082      0.00082
      0.00555     -0.00426     -0.00426
      0.01459     -0.01263     -0.00050
      0.00342     -0.00030     -0.00160
      0.01460     -0.00050     -0.01263
      0.06624     -0.00621     -0.00621
     -0.00315      0.00207     -0.00819
      0.00342     -0.00160     -0.00030
     -0.00315     -0.00819      0.00207
      0.00193     -0.00356     -0.00355
      0.00113     -0.00225     -0.00225
     -0.00124     -0.00604      0.00074
      0.00207      0.00123     -0.00137
     -0.00124      0.00074     -0.00603
      0.01489      0.00293      0.00293
      0.00909      0.00205     -0.00543
      0.00207     -0.00137      0.00123
      0.00909     -0.00543      0.00205
      0.00148     -0.00157     -0.00157
      0.00325     -0.00421     -0.00401
      0.00692      0.00098      0.00022
      0.00351     -0.00259      0.00137
      0.00644     -0.01107     -0.01432
      0.01304     -0.08204     -0.00859
     -0.00383     -0.00167      0.00043
      0.00635      0.00668     -0.01266
     -0.04796      0.05449     -0.00686
      0.00449      0.00539      0.00848
      0.00278     -0.00267     -0.00098
      0.00408     -0.00805      0.00069
      0.00187     -0.00138     -0.00087
      0.00446     -0.00247     -0.00462
      0.01250     -0.00631      0.00025
      0.00266      0.00128     -0.00326
      0.00324      0.00148      0.00065
      0.00940      0.00323      0.00151
      0.00208     -0.00016     -0.00505
     -0.00052     -0.00242     -0.00120
     -0.00374      0.00235      0.00045
     -0.00078     -0.00146      0.00086
     -0.00160     -0.00431     -0.00502
     -0.01121     -0.02151     -0.00147
      0.01104      0.00171     -0.00296
     -0.00136      0.00281     -0.00714
      0.04141      0.00720     -0.00579
      0.00915      0.00112     -0.00068
      0.00325     -0.00402     -0.00421
      0.00644     -0.01432     -0.01107
      0.00635     -0.01266      0.00668
      0.00692      0.00022      0.00098
      0.01304     -0.00859     -0.08204
     -0.04796     -0.00686      0.05449
      0.00351      0.00137     -0.00259
     -0.00383      0.00043     -0.00167
      0.00449      0.00848      0.00539
      0.00278     -0.00098     -0.00267
      0.00446     -0.00462     -0.00247
      0.00324      0.00065      0.00148
      0.00408      0.00069     -0.00805
      0.01250      0.00025     -0.00631
      0.00940      0.00151      0.00323
      0.00187     -0.00087     -0.00138
      0.00266     -0.00326      0.00128
      0.00208     -0.00506     -0.00016
     -0.00052     -0.00120     -0.00243
     -0.00160     -0.00502     -0.00431
     -0.00136     -0.00714      0.00281
     -0.00374      0.00045      0.00235
     -0.01121     -0.00147     -0.02151
      0.04141     -0.00579      0.00719
     -0.00078      0.00086     -0.00146
      0.01104     -0.00295      0.00171
      0.00915     -0.00068      0.00112
      0.00262     -0.00786      0.00759
      0.00744     -0.00133     -0.00749
      0.00704     -0.01308     -0.00227
      0.00155     -0.00477      0.01816
      0.03773     -0.02656     -0.01840
     -0.04107     -0.16723      0.18175
      0.00183      0.00522      0.00268
      0.00812      0.04219     -0.04691
      0.00512      0.01913      0.00705
      0.00310      0.00008     -0.00050
      0.00202      0.00138      0.00019
      0.00317      0.00130     -0.00547
      0.00824     -0.00234      0.00069
     -0.01617     -0.00911      0.01634
     -0.02155     -0.00851     -0.03675
      0.00374     -0.00021      0.00130
     -0.00003     -0.00524      0.00038
      0.01123      0.00531     -0.00343
     -0.00019      0.00047      0.00005
      0.00032      0.00017     -0.00065
     -0.00171      0.00000     -0.00197
     -0.00184     -0.00071      0.00050
     -0.00047     -0.00425     -0.00621
      0.00657     -0.00120     -0.00263
     -0.00137      0.00039      0.00112
      0.00167     -0.00248      0.00062
     -0.00124     -0.00043      0.00059
      0.00262      0.00760     -0.00786
      0.00154      0.01816     -0.00477
      0.00183      0.00268      0.00522
      0.00744     -0.00749     -0.00133
      0.03773     -0.01840     -0.02656
      0.00812     -0.04692      0.04218
      0.00704     -0.00227     -0.01308
     -0.04107      0.18175     -0.16723
      0.00512      0.00704      0.01913
      0.00310     -0.00050      0.00008
      0.00824      0.00070     -0.00234
      0.00374      0.00130     -0.00021
      0.00202      0.00019      0.00138
     -0.01617      0.01634     -0.00911
     -0.00003      0.00038     -0.00524
      0.00317     -0.00547      0.00130
     -0.02155     -0.03676     -0.00851
      0.01123     -0.00343      0.00531
     -0.00019      0.00005      0.00047
     -0.00184      0.00050     -0.00071
     -0.00137      0.00112      0.00039
      0.00032     -0.00065      0.00017
     -0.00047     -0.00621     -0.00425
      0.00167      0.00062     -0.00249
     -0.00171     -0.00197      0.00000
      0.00657     -0.00262     -0.00120
     -0.00124      0.00059     -0.00043
      0.00575      0.00077      0.00077
      0.01205     -0.01026     -0.00788
      0.00749     -0.00131     -0.00307
      0.01206     -0.00788     -0.01026
     -0.58243      0.45341      0.45341
      0.01482     -0.00314      0.02451
      0.00749     -0.00307     -0.00131
      0.01482      0.02451     -0.00314
      0.00518      0.00940      0.00941
      0.00150      0.00012      0.00012
      0.00066      0.00120     -0.00207
      0.00096      0.00205     -0.00141
      0.00066     -0.00207      0.00120
      0.00557     -0.00304     -0.00304
     -0.00121     -0.00186     -0.00813
      0.00096     -0.00141      0.00205
     -0.00121     -0.00813     -0.00186
      0.00166     -0.00014     -0.00014
      0.00005     -0.00017     -0.00017
     -0.00001     -0.00109     -0.00461
     -0.00237     -0.00325      0.00014
     -0.00001     -0.00460     -0.00109
     -0.00546     -0.02318     -0.02318
     -0.01055      0.00407      0.01877
     -0.00237      0.00015     -0.00325
     -0.01055      0.01876      0.00407
     -0.00203      0.00484      0.00484
      0.00495      0.00065      0.00065
      0.00785      0.00279     -0.00493
      0.00781      0.00520      0.00200
      0.00785     -0.00494      0.00279
      0.00766      0.01690      0.01690
      0.01300     -0.00670     -0.04081
      0.00781      0.00200      0.00520
      0.01300     -0.04082     -0.00670
      0.05637      0.05952      0.05952
      0.00125      0.00049      0.00049
      0.00153     -0.00182     -0.00032
      0.00184      0.00101     -0.00115
      0.00153     -0.00032     -0.00182
      0.00009      0.00076      0.00076
     -0.00167      0.00473     -0.00549
      0.00184     -0.00115      0.00101
     -0.00167     -0.00548      0.00472
      0.00023     -0.00733     -0.00733
     -0.00186      0.00126      0.00126
     -0.00201      0.00411     -0.00149
     -0.00238      0.00387      0.00108
     -0.00201     -0.00149      0.00411
      0.00646     -0.00394     -0.00394
     -0.00581     -0.02128     -0.01376
     -0.00238      0.00108      0.00387
     -0.00581     -0.01376     -0.02128
      0.01410      0.00001      0.00001

 NEB: forces: par spring, perp REAL, dneb     0.002538    0.013218    0.000000
 NEB: distance to prev, next image, angle between     0.682893    0.683401  154.438573
 NEB: projections on to tangent (spring, REAL)     0.002538   -1.249248

 stress matrix after NEB project (eV)
      0.00000      0.00000      0.00000
      0.00000      0.00000      0.00000
      0.00000      0.00000      0.00000
  FORCES: max atom, RMS     0.002761    0.000916
  FORCE total and by dimension    0.013459    0.002754
  Stress total and by dimension    0.000000    0.000000
 OPT: skip step - force has converged


--------------------------------------------------------------------------------------------------------


  
 reached required accuracy - stopping structural energy minimisation
 writing wavefunctions
     LOOP+:  cpu time    266.8720: real time    268.4556
    4ORBIT:  cpu time      0.0000: real time      0.0000

 total amount of memory used by VASP MPI-rank0  1466161. kBytes
=======================================================================

   base      :      30000. kBytes
   nonl-proj :     114397. kBytes
   fftplans  :     141100. kBytes
   grid      :     372121. kBytes
   one-center:       1327. kBytes
   wavefun   :     807216. kBytes
 
  
  
 General timing and accounting informations for this job:
 ========================================================
  
                  Total CPU time used (sec):     7151.875
                            User time (sec):     7072.680
                          System time (sec):       79.196
                         Elapsed time (sec):     7182.611
  
                   Maximum memory used (kb):     3080704.
                   Average memory used (kb):          N/A
  
                          Minor page faults:       994282
                          Major page faults:            0
                 Voluntary context switches:       287741
