 vasp.6.4.2 20Jul23 (build Jun  3 2025 15:36:07) complex                         
 executed on              LinuxNV date 2025.06.27  12:57:04
 running    7 mpi-ranks, with    1 threads/rank, on    7 nodes
 each image running on    1 cores
 distrk:  each k-point on    1 cores,    1 groups
 distr:  one band on NCORE=   1 cores,    1 groups
 OpenACC runtime initialized ...    7 GPUs detected


--------------------------------------------------------------------------------------------------------


 INCAR:
   SYSTEM = Si
   ISTART = 1
   ICHARG = 2
   NCORE = 8
   ISPIN = 2
   NELECT = 1080
   NELM = 20
   ENCUT = 400
   PREC = Accurate
   ISMEAR = 0
   SIGMA = 0.01
   EDIFF = 1E-10
   IBRION = 3
   NSW = 500
   POTIM = 0
   ISIF = 0
   IOPT = 1
   EDIFFG = -0.010
   ICHAIN = 0
   IMAGES = 7
   SPRING = -5.0
   LCLIMB = .FALSE.

 POTCAR:   PAW_PBE F 08Apr2002                    
 POTCAR:    PAW_PBE Li_sv 10Sep2004               
 -----------------------------------------------------------------------------
|                                                                             |
|           W    W    AA    RRRRR   N    N  II  N    N   GGGG   !!!           |
|           W    W   A  A   R    R  NN   N  II  NN   N  G    G  !!!           |
|           W    W  A    A  R    R  N N  N  II  N N  N  G       !!!           |
|           W WW W  AAAAAA  RRRRR   N  N N  II  N  N N  G  GGG   !            |
|           WW  WW  A    A  R   R   N   NN  II  N   NN  G    G                |
|           W    W  A    A  R    R  N    N  II  N    N   GGGG   !!!           |
|                                                                             |
|     You use a magnetic or noncollinear calculation, but did not specify     |
|     the initial magnetic moment with the MAGMOM tag. Note that a            |
|     default of 1 will be used for all atoms. This ferromagnetic setup       |
|     may break the symmetry of the crystal, in particular it may rule        |
|     out finding an antiferromagnetic solution. Thence, we recommend         |
|     setting the initial magnetic moment manually or verifying carefully     |
|     that this magnetic setup is desired.                                    |
|                                                                             |
 -----------------------------------------------------------------------------

 POTCAR:   PAW_PBE F 08Apr2002                    
   VRHFIN =F: s2p5                                                                                  
   LEXCH  = PE                                                                                      
   EATOM  =   659.4942 eV,   48.4715 Ry                                                             
                                                                                                    
   TITEL  = PAW_PBE F 08Apr2002                                                                     
   LULTRA =        F    use ultrasoft PP ?                                                          
   IUNSCR =        0    unscreen: 0-lin 1-nonlin 2-no                                               
   RPACOR =     .000    partial core radius                                                         
   POMASS =   18.998; ZVAL   =    7.000    mass and valenz                                          
   RCORE  =    1.520    outmost cutoff radius                                                       
   RWIGS  =    1.500; RWIGS  =     .794    wigner-seitz radius (au A)                               
   ENMAX  =  400.000; ENMIN  =  300.000 eV                                                          
   ICORE  =        2    local potential                                                             
   LCOR   =        T    correct aug charges                                                         
   LPAW   =        T    paw PP                                                                      
   EAUG   =  613.614                                                                                
   DEXC   =     .000                                                                                
   RMAX   =    2.254    core radius for proj-oper                                                   
   RAUG   =    1.300    factor for augmentation sphere                                              
   RDEP   =    1.539    radius for radial grids                                                     
   QCUT   =   -5.545; QGAM   =   11.091    optimization parameters                                  
                                                                                                    
   Description                                                                                      
     l     E      TYP  RCUT    TYP  RCUT                                                            
     0   .000     23  1.200                                                                         
     0  -.700     23  1.200                                                                         
     1   .000     23  1.520                                                                         
     1   .100     23  1.520                                                                         
     2   .000      7  1.500                                                                         
  local pseudopotential read in
  atomic valenz-charges read in
  non local Contribution for L=            0  read in
    real space projection operators read in
  non local Contribution for L=            0  read in
    real space projection operators read in
  non local Contribution for L=            1  read in
    real space projection operators read in
  non local Contribution for L=            1  read in
    real space projection operators read in
    PAW grid and wavefunctions read in
 
   number of l-projection  operators is LMAX  =            4
   number of lm-projection operators is LMMAX =            8
 
 POTCAR:    PAW_PBE Li_sv 10Sep2004               
   VRHFIN =Li: 1s2s2p                                                                               
   LEXCH  = PE                                                                                      
   EATOM  =   202.7858 eV,   14.9043 Ry                                                             
                                                                                                    
   TITEL  = PAW_PBE Li_sv 10Sep2004                                                                 
   LULTRA =        F    use ultrasoft PP ?                                                          
   IUNSCR =        0    unscreen: 0-lin 1-nonlin 2-no                                               
   RPACOR =     .000    partial core radius                                                         
   POMASS =    7.010; ZVAL   =    3.000    mass and valenz                                          
   RCORE  =    1.700    outmost cutoff radius                                                       
   RWIGS  =    2.050; RWIGS  =    1.085    wigner-seitz radius (au A)                               
   ENMAX  =  499.034; ENMIN  =  374.276 eV                                                          
   ICORE  =        2    local potential                                                             
   LCOR   =        T    correct aug charges                                                         
   LPAW   =        T    paw PP                                                                      
   EAUG   =  628.945                                                                                
   RMAX   =    2.064    core radius for proj-oper                                                   
   RAUG   =    1.300    factor for augmentation sphere                                              
   RDEP   =    1.728    radius for radial grids                                                     
   QCUT   =   -6.056; QGAM   =   12.112    optimization parameters                                  
                                                                                                    
   Description                                                                                      
     l     E      TYP  RCUT    TYP  RCUT                                                            
     0   .000     23  1.400                                                                         
     0   .000     23  1.700                                                                         
     1   .000     23  1.400                                                                         
     2   .000     23  1.400                                                                         
  local pseudopotential read in
  atomic valenz-charges read in
  non local Contribution for L=            0  read in
    real space projection operators read in
  non local Contribution for L=            0  read in
    real space projection operators read in
  non local Contribution for L=            1  read in
    real space projection operators read in
    PAW grid and wavefunctions read in
 
   number of l-projection  operators is LMAX  =            3
   number of lm-projection operators is LMMAX =            5
 
 -----------------------------------------------------------------------------
|                                                                             |
|               ----> ADVICE to this user running VASP <----                  |
|                                                                             |
|     You have a (more or less) 'large supercell' and for larger cells it     |
|     might be more efficient to use real-space projection operators.         |
|     Therefore, try LREAL= Auto in the INCAR file.                           |
|     Mind: If you want to do very accurate calculations, keep the            |
|     reciprocal projection scheme (i.e. LREAL=.FALSE.).                      |
|                                                                             |
 -----------------------------------------------------------------------------

 PAW_PBE F 08Apr2002                    :
 energy of atom  1       EATOM= -659.4942
 kinetic energy error for atom=    0.1980 (will be added to EATOM!!)
  PAW_PBE Li_sv 10Sep2004               :
 energy of atom  2       EATOM= -202.7858
 kinetic energy error for atom=    0.0926 (will be added to EATOM!!)
 
 
 POSCAR: Li   F
  positions in direct lattice
  No initial velocities read in
 exchange correlation table for  LEXCH =        8
   RHO(1)=    0.500       N(1)  =     2000
   RHO(2)=  100.500       N(2)  =     4000

 VTST: version 4.1, (05/19/21)

 CHAIN: initializing optimizer
 
 OPT: Using LBFGS optimizer
 OPT: LBFGS, Init
 OPT: LBFGS, MEMORY             20
 OPT: LBFGS, IMAGES              7
 OPT: LBFGS, MAXMOVE      0.200000
 OPT: LBFGS, LGLOBAL      T
 OPT: LBFGS, INVCURV      0.010000
 OPT: LBFGS, LLINEOPT      F
 OPT: LBFGS, FDSTEP       0.005000
 OPT: LBFGS, LAUTOSCALE      T
 OPT: LBFGS, DAMPING      2.000000
 
 CHAIN: Read ICHAIN             0
 CHAIN: Running the NEB
 NEB:          SPRING     -5.000000
 NEB:          LCLIMB      F
 NEB:     LTANGENTOLD      F
 NEB:           LDNEB      F
 NEB:        LDNEBORG      F
 NEB:        LNEBCELL      F
 NEB:          EFIRST      0.000000
 NEB:           ELAST      0.000000
 
 POSCAR: Li   F
  positions in direct lattice
  No initial velocities read in
 
 POSCAR: Li   F
  positions in direct lattice
  No initial velocities read in
 
 POSCAR: Li   F
  positions in direct lattice
  No initial velocities read in
 
 POSCAR: Li   F
  positions in direct lattice
  No initial velocities read in
 


--------------------------------------------------------------------------------------------------------


 ion  position               nearest neighbor table
   1  1.000  1.000  1.000- 208 2.01 136 2.01 109 2.01 115 2.01 138 2.01 190 2.02
   2  0.000  1.000  0.333- 116 2.00 136 2.01 110 2.01 137 2.01 209 2.01 191 2.02
   3  0.000  1.000  0.667- 138 2.01 192 2.01 210 2.02 137 2.02 111 2.02 117 2.02
   4  0.000  0.333  1.000- 141 2.00 109 2.01 139 2.01 112 2.01 211 2.01 193 2.02
   5  0.999  0.334  0.334- 212 2.00 140 2.00 113 2.00 139 2.03 110 2.03 194 2.03
   6  0.002  0.332  0.666- 114 1.90 111 2.00 140 2.01 141 2.03 213 2.04 195 2.05
   7  0.000  0.667  1.000- 115 2.01 196 2.01 214 2.02 112 2.02 142 2.02 144 2.02
   8  0.002  0.666  0.332- 143 1.90 142 2.00 113 2.01 116 2.03 215 2.04 197 2.05
   9  0.006  0.666  0.666- 167 1.55 198 1.99 144 2.01 117 2.01 114 2.16 143 2.16
  10  0.333  1.000  1.000- 199 2.01 124 2.01 147 2.01 145 2.01 118 2.01 190 2.01
  11  0.333  0.000  0.333- 200 2.01 145 2.01 191 2.01 146 2.01 125 2.02 119 2.02
  12  0.333  0.001  0.667- 201 1.98 120 2.00 192 2.01 147 2.01 126 2.02 146 2.02
  13  0.333  0.333  0.000- 202 2.01 118 2.01 193 2.01 121 2.01 150 2.02 148 2.02
  14  0.333  0.333  0.333- 203 2.00 119 2.00 148 2.00 194 2.01 149 2.01 122 2.01
  15  0.335  0.331  0.667- 195 1.96 204 1.99 120 1.99 150 2.01 149 2.03 123 2.03
  16  0.333  0.667  0.001- 205 1.98 151 2.00 196 2.01 124 2.01 153 2.02 121 2.02
  17  0.335  0.667  0.331- 197 1.96 206 1.99 151 1.99 125 2.01 122 2.03 152 2.03
  18  0.334  0.667  0.667- 207 1.97 198 1.98 126 2.01 153 2.01 152 2.03 123 2.03
  19  0.667  1.000  1.000- 156 2.00 133 2.00 208 2.01 199 2.02 127 2.02 154 2.02
  20  0.666  1.000  0.333- 155 2.00 154 2.00 128 2.01 134 2.01 200 2.02 209 2.02
  21  0.665  0.002  0.667- 135 1.93 129 1.99 156 2.01 201 2.02 155 2.04 210 2.04
  22  0.666  0.333  1.000- 130 2.00 127 2.00 157 2.01 159 2.01 202 2.02 211 2.02
  23  0.667  0.333  0.333- 212 2.01 157 2.01 128 2.01 158 2.02 131 2.02 203 2.04
  24  0.666  0.332  0.666- 129 2.00 158 2.01 204 2.02 132 2.02 159 2.02 213 2.03
  25  0.665  0.667  0.002- 162 1.93 160 1.99 133 2.01 205 2.02 130 2.04 214 2.04
  26  0.666  0.666  0.332- 160 2.00 131 2.01 206 2.02 161 2.02 134 2.02 215 2.03
  27  0.660  0.669  0.669- 216 1.80 207 1.96 161 2.04 132 2.04 135 2.11 162 2.11
  28  1.000  0.166  0.166- 181 2.01 136 2.01 109 2.01 110 2.02 139 2.02 163 2.02
  29  0.999  0.165  0.500- 182 2.00 137 2.00 110 2.01 111 2.01 164 2.03 140 2.04
  30  0.000  0.166  0.834- 138 1.99 141 2.00 109 2.01 183 2.01 165 2.02 111 2.02
  31  0.999  0.500  0.165- 184 2.00 112 2.00 139 2.01 142 2.01 166 2.03 113 2.04
  32  0.981  0.495  0.495- 167 1.51 185 1.94 113 1.97 140 1.97 143 2.16 114 2.16
  33  0.001  0.499  0.831- 114 1.98 144 2.01 141 2.02 186 2.02 112 2.03 168 2.05
  34  0.000  0.834  0.166- 115 1.99 116 2.00 136 2.01 187 2.01 169 2.02 142 2.02
  35  0.001  0.831  0.499- 143 1.98 117 2.01 116 2.02 188 2.02 137 2.03 170 2.05
  36  0.998  0.833  0.833- 189 1.97 117 2.03 144 2.03 138 2.03 115 2.03 171 2.03
  37  0.333  0.166  0.166- 172 2.00 118 2.01 145 2.01 163 2.01 148 2.02 119 2.02
  38  0.334  0.165  0.500- 173 1.98 146 1.99 119 2.01 120 2.01 164 2.02 149 2.07
  39  0.334  0.166  0.834- 174 2.00 147 2.00 165 2.01 118 2.01 150 2.02 120 2.02
  40  0.334  0.500  0.165- 175 1.98 121 1.99 148 2.01 151 2.01 166 2.02 122 2.07
  41  0.346  0.499  0.499- 176 1.88 149 1.98 122 1.98 123 1.99 152 1.99
  42  0.335  0.499  0.837- 177 1.97 121 1.98 168 1.99 150 2.01 153 2.02 123 2.09
  43  0.334  0.834  0.166- 178 2.00 124 2.00 169 2.01 145 2.01 125 2.02 151 2.02
  44  0.335  0.837  0.499- 179 1.97 146 1.98 170 1.99 125 2.01 126 2.02 152 2.09
  45  0.333  0.834  0.834- 180 1.99 147 2.01 124 2.01 171 2.01 153 2.03 126 2.03
  46  0.667  0.166  0.166- 128 2.01 154 2.01 157 2.01 127 2.01 181 2.02 172 2.02
  47  0.666  0.166  0.499- 158 1.97 155 1.98 128 2.01 173 2.02 129 2.02 182 2.03
  48  0.666  0.167  0.834- 156 2.00 127 2.01 174 2.01 159 2.02 129 2.02 183 2.02
  49  0.666  0.499  0.166- 131 1.97 130 1.98 157 2.01 175 2.02 160 2.02 184 2.03
  50  0.667  0.498  0.498- 185 1.89 176 1.99 131 2.04 158 2.04 161 2.04 132 2.04
  51  0.665  0.502  0.835- 162 1.97 130 2.01 177 2.02 159 2.03 132 2.03 186 2.04
  52  0.666  0.834  0.167- 133 2.00 154 2.01 178 2.01 134 2.02 160 2.02 187 2.02
  53  0.665  0.835  0.502- 135 1.97 155 2.01 179 2.02 134 2.03 161 2.03 188 2.04
  54  0.670  0.830  0.830- 189 2.02 135 2.02 162 2.02 133 2.07 156 2.07 180 2.08
  55  0.167  0.000  0.166- 190 2.00 136 2.01 191 2.01 169 2.01 145 2.01 163 2.02
  56  0.167  0.000  0.499- 170 1.96 164 1.98 137 2.01 146 2.02 191 2.02 192 2.02
  57  0.166  1.000  0.834- 138 2.00 190 2.01 147 2.01 165 2.01 171 2.01 192 2.02
  58  0.166  0.332  0.165- 163 1.99 139 2.00 193 2.00 148 2.01 166 2.02 194 2.06
  59  0.165  0.321  0.501- 164 1.90 140 1.97 195 1.98 194 2.00 149 2.00
  60  0.167  0.331  0.834- 165 1.99 193 2.00 141 2.01 150 2.01 168 2.03 195 2.05
  61  0.167  0.668  0.165- 196 1.99 197 2.00 169 2.00 151 2.01 142 2.01 166 2.04
  62  0.174  0.681  0.498- 143 1.84 170 1.90 152 1.93 198 2.02 197 2.04
  63  0.167  0.668  0.835- 196 2.00 171 2.00 144 2.00 153 2.01 168 2.03 198 2.05
  64  0.500  0.000  0.166- 199 2.01 154 2.01 178 2.01 172 2.01 200 2.01 145 2.02
  65  0.500  0.001  0.500- 173 2.01 155 2.01 146 2.01 201 2.01 200 2.02 179 2.02
  66  0.500  1.000  0.834- 156 2.00 180 2.00 199 2.01 201 2.02 174 2.02 147 2.02
  67  0.500  0.333  0.166- 157 2.00 172 2.01 202 2.01 203 2.01 175 2.01 148 2.02
  68  0.501  0.331  0.499- 158 1.96 173 1.99 203 2.01 204 2.02 176 2.03 149 2.06
  69  0.500  0.333  0.834- 174 2.00 177 2.00 159 2.01 202 2.01 150 2.01 204 2.02
  70  0.500  0.667  0.167- 205 1.98 151 2.01 206 2.01 160 2.01 178 2.01 175 2.02
  71  0.501  0.668  0.499- 161 1.97 179 2.00 206 2.01 207 2.02 152 2.03 176 2.04
  72  0.498  0.667  0.836- 162 1.92 153 1.99 180 2.01 205 2.02 177 2.04 207 2.05
  73  0.833  0.000  0.167- 208 1.98 181 2.00 209 2.01 187 2.02 154 2.02 136 2.02
  74  0.833  1.000  0.500- 182 2.00 188 2.01 209 2.01 137 2.02 210 2.02 155 2.02
  75  0.833  0.002  0.835- 189 1.93 183 2.00 156 2.02 208 2.02 138 2.03 210 2.04
  76  0.833  0.332  0.165- 212 1.96 211 2.00 181 2.00 157 2.02 139 2.03 184 2.03
  77  0.832  0.328  0.498- 185 1.86 182 1.96 158 2.04 213 2.04 212 2.05 140 2.07
  78  0.834  0.333  0.834- 183 2.00 211 2.01 186 2.02 159 2.02 141 2.02 213 2.02
  79  0.833  0.667  0.167- 214 1.99 187 2.01 215 2.01 160 2.02 184 2.02 142 2.02
  80  0.825  0.672  0.497- 161 1.94 188 1.96 215 1.98 167 2.19
  81  0.833  0.668  0.839- 216 1.79 214 1.96 144 2.03 186 2.04 189 2.11 162 2.13
  82  0.167  0.166  0.000- 190 2.00 109 2.01 193 2.01 165 2.01 118 2.01 163 2.02
  83  0.166  0.165  0.332- 163 1.99 110 2.00 191 2.00 119 2.01 164 2.02 194 2.06
  84  0.167  0.165  0.668- 192 1.99 195 2.00 165 2.00 120 2.01 111 2.01 164 2.04
  85  0.167  0.499  0.000- 168 1.96 166 1.98 112 2.01 121 2.02 193 2.02 196 2.02
  86  0.165  0.501  0.321- 166 1.90 113 1.97 197 1.98 194 2.00 122 2.00
  87  0.174  0.498  0.681- 114 1.84 168 1.90 123 1.93 198 2.02 195 2.04
  88  0.166  0.834  1.000- 115 2.00 190 2.01 124 2.01 169 2.01 171 2.01 196 2.02
  89  0.167  0.834  0.331- 169 1.99 191 2.00 116 2.01 125 2.01 170 2.03 197 2.05
  90  0.167  0.835  0.668- 192 2.00 171 2.00 117 2.00 126 2.01 170 2.03 198 2.05
  91  0.500  0.166  0.000- 199 2.01 127 2.01 174 2.01 172 2.01 202 2.01 118 2.02
  92  0.500  0.166  0.333- 128 2.00 172 2.01 200 2.01 203 2.01 173 2.01 119 2.02
  93  0.500  0.167  0.667- 201 1.98 120 2.01 204 2.01 129 2.01 174 2.01 173 2.02
  94  0.500  0.500  0.001- 175 2.01 130 2.01 121 2.01 205 2.01 202 2.02 177 2.02
  95  0.501  0.499  0.331- 131 1.96 175 1.99 203 2.01 206 2.02 176 2.03 122 2.06
  96  0.501  0.499  0.668- 132 1.97 177 2.00 204 2.01 207 2.02 123 2.03 176 2.04
  97  0.500  0.834  1.000- 133 2.00 180 2.00 199 2.01 205 2.02 178 2.02 124 2.02
  98  0.500  0.834  0.333- 178 2.00 179 2.00 134 2.01 200 2.01 125 2.01 206 2.02
  99  0.498  0.836  0.667- 135 1.92 126 1.99 180 2.01 201 2.02 179 2.04 207 2.05
 100  0.833  0.167  0.000- 208 1.98 181 2.00 211 2.01 183 2.02 127 2.02 109 2.02
 101  0.833  0.165  0.332- 212 1.96 209 2.00 181 2.00 128 2.02 110 2.03 182 2.03
 102  0.833  0.167  0.667- 210 1.99 183 2.01 213 2.01 129 2.02 182 2.02 111 2.02
 103  0.833  0.500  1.000- 184 2.00 186 2.01 211 2.01 112 2.02 214 2.02 130 2.02
 104  0.832  0.498  0.328- 185 1.86 184 1.96 131 2.04 215 2.04 212 2.05 113 2.07
 105  0.825  0.497  0.672- 132 1.94 186 1.96 213 1.98 167 2.19
 106  0.833  0.835  0.002- 189 1.93 187 2.00 133 2.02 208 2.02 115 2.03 214 2.04
 107  0.834  0.834  0.333- 187 2.00 209 2.01 188 2.02 134 2.02 116 2.02 215 2.02
 108  0.833  0.839  0.668- 216 1.79 210 1.96 117 2.03 188 2.04 189 2.11 135 2.13
 109  0.001  0.167  0.000-  82 2.01  28 2.01   4 2.01  30 2.01   1 2.01 100 2.02
 110  0.001  0.166  0.333-  83 2.00  29 2.01   2 2.01  28 2.02   5 2.03 101 2.03
 111  0.001  0.167  0.666-   6 2.00  29 2.01  84 2.01   3 2.02 102 2.02  30 2.02
 112  0.000  0.500  0.999-  31 2.00  85 2.01   4 2.01   7 2.02 103 2.02  33 2.03
 113  0.003  0.500  0.334-  86 1.97  32 1.97   5 2.00   8 2.01  31 2.04 104 2.07
 114  0.023  0.488  0.669- 167 1.74  87 1.84   6 1.90  33 1.98   9 2.16  32 2.16
 115  0.001  0.833  0.001-  34 1.99  88 2.00   7 2.01   1 2.01  36 2.03 106 2.03
 116  0.001  0.834  0.332-  34 2.00   2 2.00  89 2.01  35 2.02 107 2.02   8 2.03
 117  0.001  0.832  0.666-  90 2.00  35 2.01   9 2.01   3 2.02  36 2.03 108 2.03
 118  0.333  0.167  0.000-  13 2.01  37 2.01  39 2.01  10 2.01  82 2.01  91 2.02
 119  0.332  0.167  0.333-  14 2.00  83 2.01  38 2.01  37 2.02  11 2.02  92 2.02
 120  0.333  0.166  0.666-  15 1.99  12 2.00  84 2.01  93 2.01  38 2.01  39 2.02
 121  0.334  0.499  0.001-  42 1.98  40 1.99  94 2.01  13 2.01  85 2.02  16 2.02
 122  0.330  0.499  0.336-  41 1.98  86 2.00  14 2.01  17 2.03  95 2.06  40 2.07
 123  0.333  0.499  0.663-  87 1.93  41 1.99  15 2.03  18 2.03  96 2.03  42 2.09
 124  0.333  0.834  0.000-  43 2.00  45 2.01  88 2.01  10 2.01  16 2.01  97 2.02
 125  0.334  0.833  0.333-  44 2.01  17 2.01  89 2.01  98 2.01  11 2.02  43 2.02
 126  0.333  0.834  0.666-  99 1.99  18 2.01  90 2.01  44 2.02  12 2.02  45 2.03
 127  0.666  0.167  1.000-  22 2.00  91 2.01  48 2.01  46 2.01 100 2.02  19 2.02
 128  0.666  0.166  0.332-  92 2.00  20 2.01  46 2.01  47 2.01  23 2.01 101 2.02
 129  0.666  0.167  0.667-  21 1.99  24 2.00  93 2.01  48 2.02 102 2.02  47 2.02
 130  0.666  0.499  0.001-  49 1.98  22 2.00  94 2.01  51 2.01 103 2.02  25 2.04
 131  0.663  0.500  0.329-  95 1.96  49 1.97  26 2.01  23 2.02 104 2.04  50 2.04
 132  0.664  0.500  0.667- 105 1.94  96 1.97  24 2.02  51 2.03  27 2.04  50 2.04
 133  0.666  0.834  0.001-  52 2.00  97 2.00  19 2.00  25 2.01 106 2.02  54 2.07
 134  0.666  0.833  0.334-  98 2.01  20 2.01  52 2.02  26 2.02 107 2.02  53 2.03
 135  0.656  0.843  0.664-  99 1.92  21 1.93  53 1.97  54 2.02  27 2.11 108 2.13 216 2.53
 136  0.001  0.000  0.167-  55 2.01  28 2.01   2 2.01  34 2.01   1 2.01  73 2.02
 137  0.000  0.999  0.500-  29 2.00  56 2.01   2 2.01   3 2.02  74 2.02  35 2.03
 138  0.001  0.001  0.833-  30 1.99  57 2.00   3 2.01   1 2.01  36 2.03  75 2.03
 139  0.001  0.333  0.166-  58 2.00  31 2.01   4 2.01  28 2.02   5 2.03  76 2.03
 140  0.003  0.334  0.500-  59 1.97  32 1.97   5 2.00   6 2.01  29 2.04  77 2.07
 141  0.001  0.332  0.834-  30 2.00   4 2.00  60 2.01  33 2.02  78 2.02   6 2.03
 142  0.001  0.666  0.167-   8 2.00  31 2.01  61 2.01   7 2.02  79 2.02  34 2.02
 143  0.023  0.669  0.488- 167 1.74  62 1.84   8 1.90  35 1.98   9 2.16  32 2.16
 144  0.001  0.666  0.832-  63 2.00  33 2.01   9 2.01   7 2.02  36 2.03  81 2.03
 145  0.333  0.000  0.167-  11 2.01  37 2.01  43 2.01  10 2.01  55 2.01  64 2.02
 146  0.334  0.001  0.499-  44 1.98  38 1.99  65 2.01  11 2.01  56 2.02  12 2.02
 147  0.333  0.000  0.834-  39 2.00  45 2.01  57 2.01  10 2.01  12 2.01  66 2.02
 148  0.332  0.333  0.167-  14 2.00  58 2.01  40 2.01  37 2.02  13 2.02  67 2.02
 149  0.330  0.336  0.499-  41 1.98  59 2.00  14 2.01  15 2.03  68 2.06  38 2.07
 150  0.334  0.333  0.833-  42 2.01  15 2.01  60 2.01  69 2.01  13 2.02  39 2.02
 151  0.333  0.666  0.166-  17 1.99  16 2.00  61 2.01  70 2.01  40 2.01  43 2.02
 152  0.333  0.663  0.499-  62 1.93  41 1.99  17 2.03  18 2.03  71 2.03  44 2.09
 153  0.333  0.666  0.834-  72 1.99  18 2.01  63 2.01  42 2.02  16 2.02  45 2.03
 154  0.666  1.000  0.167-  20 2.00  64 2.01  52 2.01  46 2.01  73 2.02  19 2.02
 155  0.666  0.001  0.499-  47 1.98  20 2.00  65 2.01  53 2.01  74 2.02  21 2.04
 156  0.666  0.001  0.834-  48 2.00  66 2.00  19 2.00  21 2.01  75 2.02  54 2.07
 157  0.666  0.332  0.166-  67 2.00  22 2.01  46 2.01  23 2.01  49 2.01  76 2.02
 158  0.663  0.329  0.500-  68 1.96  47 1.97  24 2.01  23 2.02  77 2.04  50 2.04
 159  0.666  0.334  0.833-  69 2.01  22 2.01  48 2.02  24 2.02  78 2.02  51 2.03
 160  0.666  0.667  0.167-  25 1.99  26 2.00  70 2.01  52 2.02  79 2.02  49 2.02
 161  0.664  0.667  0.500-  80 1.94  71 1.97  26 2.02  53 2.03  27 2.04  50 2.04
 162  0.656  0.664  0.843-  72 1.92  25 1.93  51 1.97  54 2.02  27 2.11  81 2.13 216 2.53
 163  0.167  0.167  0.167-  58 1.99  83 1.99  37 2.01  82 2.02  55 2.02  28 2.02
 164  0.167  0.164  0.499-  59 1.90  56 1.98  38 2.02  83 2.02  29 2.03  84 2.04
 165  0.167  0.166  0.834-  60 1.99  84 2.00  39 2.01  57 2.01  82 2.01  30 2.02
 166  0.167  0.499  0.164-  86 1.90  85 1.98  40 2.02  58 2.02  31 2.03  61 2.04
 167  0.957  0.582  0.582-  32 1.51   9 1.55 143 1.74 114 1.74 105 2.19  80 2.19 185 2.38
 168  0.171  0.499  0.838-  87 1.90  85 1.96  42 1.99  60 2.03  63 2.03  33 2.05
 169  0.167  0.834  0.166-  89 1.99  61 2.00  43 2.01  88 2.01  55 2.01  34 2.02
 170  0.171  0.838  0.499-  62 1.90  56 1.96  44 1.99  89 2.03  90 2.03  35 2.05
 171  0.167  0.833  0.833-  90 2.00  63 2.00  45 2.01  57 2.01  88 2.01  36 2.03
 172  0.499  0.167  0.167-  37 2.00  92 2.01  67 2.01  64 2.01  91 2.01  46 2.02
 173  0.498  0.167  0.499-  38 1.98  68 1.99  65 2.01  92 2.01  47 2.02  93 2.02
 174  0.500  0.167  0.834-  69 2.00  39 2.00  91 2.01  93 2.01  48 2.01  66 2.02
 175  0.498  0.499  0.167-  40 1.98  95 1.99  94 2.01  67 2.01  49 2.02  70 2.02
 176  0.502  0.499  0.499-  41 1.88  50 1.99  68 2.03  95 2.03  96 2.04  71 2.04
 177  0.498  0.499  0.833-  42 1.97  96 2.00  69 2.00  51 2.02  94 2.02  72 2.04
 178  0.500  0.834  0.167-  98 2.00  43 2.00  64 2.01  70 2.01  52 2.01  97 2.02
 179  0.498  0.833  0.499-  44 1.97  71 2.00  98 2.00  53 2.02  65 2.02  99 2.04
 180  0.498  0.834  0.834-  45 1.99  66 2.00  97 2.00  72 2.01  99 2.01  54 2.08
 181  0.834  0.166  0.166-  73 2.00 100 2.00 101 2.00  76 2.00  28 2.01  46 2.02
 182  0.834  0.166  0.499-  77 1.96  29 2.00  74 2.00 102 2.02  47 2.03 101 2.03
 183  0.833  0.167  0.833-  75 2.00  78 2.00 102 2.01  30 2.01 100 2.02  48 2.02
 184  0.834  0.499  0.166- 104 1.96  31 2.00 103 2.00  79 2.02  49 2.03  76 2.03
 185  0.822  0.481  0.481-  77 1.86 104 1.86  50 1.89  32 1.94 167 2.38
 186  0.833  0.500  0.834- 105 1.96 103 2.01  78 2.02  33 2.02  51 2.04  81 2.04
 187  0.833  0.833  0.167- 106 2.00 107 2.00  79 2.01  34 2.01  73 2.02  52 2.02
 188  0.833  0.834  0.500-  80 1.96  74 2.01 107 2.02  35 2.02  53 2.04 108 2.04
 189  0.836  0.843  0.843-  75 1.93 106 1.93  36 1.97  54 2.02  81 2.11 108 2.11 216 2.53
 190  0.167  0.000  0.000-  82 2.00  55 2.00  88 2.01  57 2.01  10 2.01   1 2.02
 191  0.167  0.000  0.332-  83 2.00  89 2.00  55 2.01  11 2.01   2 2.02  56 2.02
 192  0.167  0.000  0.667-  84 1.99  90 2.00  12 2.01   3 2.01  57 2.02  56 2.02
 193  0.167  0.332  0.000-  58 2.00  60 2.00  82 2.01  13 2.01   4 2.02  85 2.02
 194  0.167  0.336  0.336-  86 2.00  59 2.00  14 2.01   5 2.03  83 2.06  58 2.06
 195  0.172  0.330  0.665-  15 1.96  59 1.98  84 2.00  87 2.04  60 2.05   6 2.05
 196  0.167  0.667  0.000-  61 1.99  63 2.00  16 2.01   7 2.01  88 2.02  85 2.02
 197  0.172  0.665  0.330-  17 1.96  86 1.98  61 2.00  62 2.04  89 2.05   8 2.05
 198  0.171  0.665  0.665-  18 1.98   9 1.99  87 2.02  62 2.02  90 2.05  63 2.05
 199  0.500  0.000  0.000-  91 2.01  64 2.01  10 2.01  66 2.01  97 2.01  19 2.02
 200  0.499  0.000  0.333-  11 2.01  92 2.01  98 2.01  64 2.01  20 2.02  65 2.02
 201  0.497  0.003  0.666-  93 1.98  12 1.98  65 2.01  99 2.02  66 2.02  21 2.02
 202  0.499  0.333  0.000-  13 2.01  67 2.01  69 2.01  91 2.01  22 2.02  94 2.02
 203  0.498  0.333  0.333-  14 2.00  68 2.01  95 2.01  67 2.01  92 2.01  23 2.04
 204  0.499  0.333  0.666-  15 1.99  96 2.01  93 2.01  68 2.02  24 2.02  69 2.02
 205  0.497  0.666  0.003-  70 1.98  16 1.98  94 2.01  72 2.02  97 2.02  25 2.02
 206  0.499  0.666  0.333-  17 1.99  71 2.01  70 2.01  95 2.02  26 2.02  98 2.02
 207  0.497  0.666  0.666-  27 1.96  18 1.97  96 2.02  71 2.02  72 2.05  99 2.05
 208  0.834  0.002  0.002- 100 1.98  73 1.98   1 2.01  19 2.01  75 2.02 106 2.02
 209  0.833  1.000  0.333- 101 2.00 107 2.01  73 2.01  74 2.01   2 2.01  20 2.02
 210  0.833  0.002  0.667- 108 1.96 102 1.99   3 2.02  74 2.02  21 2.04  75 2.04
 211  0.833  0.333  1.000-  76 2.00  78 2.01 100 2.01 103 2.01   4 2.01  22 2.02
 212  0.834  0.327  0.327-  76 1.96 101 1.96   5 2.00  23 2.01  77 2.05 104 2.05
 213  0.834  0.333  0.666- 105 1.98 102 2.01  78 2.02  24 2.03   6 2.04  77 2.04
 214  0.833  0.667  0.002-  81 1.96  79 1.99   7 2.02 103 2.02  25 2.04 106 2.04
 215  0.834  0.666  0.333-  80 1.98  79 2.01 107 2.02  26 2.03   8 2.04 104 2.04
 216  0.803  0.697  0.697-  81 1.79 108 1.79  27 1.80 189 2.53 135 2.53 162 2.53
 
  LATTYP: Found a simple cubic cell.
 ALAT       =    12.0789003372
  
  Lattice vectors:
  
 A1 = (  12.0789003372,   0.0000000000,   0.0000000000)
 A2 = (   0.0000000000,  12.0789003372,   0.0000000000)
 A3 = (   0.0000000000,   0.0000000000,  12.0789003372)


Analysis of symmetry for initial positions (statically):
=====================================================================
 Subroutine PRICEL returns:
 Original cell was already a primitive cell.
 

 Routine SETGRP: Setting up the symmetry group for a 
 simple cubic supercell.


 Subroutine GETGRP returns: Found  1 space group operations
 (whereof  1 operations were pure point group operations)
 out of a pool of 48 trial point group operations.


The static configuration has the point symmetry C_1 .


Analysis of symmetry for dynamics (positions and initial velocities):
=====================================================================
 Subroutine PRICEL returns:
 Original cell was already a primitive cell.
 

 Routine SETGRP: Setting up the symmetry group for a 
 simple cubic supercell.


 Subroutine GETGRP returns: Found  1 space group operations
 (whereof  1 operations were pure point group operations)
 out of a pool of 48 trial point group operations.


The dynamic configuration has the point symmetry C_1 .


Analysis of structural, dynamic, and magnetic symmetry:
=====================================================================
 Subroutine PRICEL returns:
 Original cell was already a primitive cell.
 

 Routine SETGRP: Setting up the symmetry group for a 
 simple cubic supercell.


 Subroutine GETGRP returns: Found  1 space group operations
 (whereof  1 operations were pure point group operations)
 out of a pool of 48 trial point group operations.


The overall configuration has the point symmetry C_1 .


 Subroutine INISYM returns: Found  1 space group operations
 (whereof  1 operations are pure point group operations),
 and found     1 'primitive' translations


----------------------------------------------------------------------------------------

                                     Primitive cell                                     

  volume of cell :    1762.3095

  direct lattice vectors                    reciprocal lattice vectors
    12.078900337  0.000000000  0.000000000     0.082788993  0.000000000  0.000000000
     0.000000000 12.078900337  0.000000000     0.000000000  0.082788993  0.000000000
     0.000000000  0.000000000 12.078900337     0.000000000  0.000000000  0.082788993

  length of vectors
    12.078900337 12.078900337 12.078900337     0.082788993  0.082788993  0.082788993

  position of ions in fractional coordinates (direct lattice)
     0.999727170  0.999925072  0.999928497
     0.000164605  0.999575390  0.333026022
     0.000180252  0.999643697  0.666578535
     0.000164626  0.333022652  0.999577983
     0.998816337  0.333923556  0.333927044
     0.002282290  0.332050092  0.666160901
     0.000179991  0.666575529  0.999647267
     0.002281916  0.666157586  0.332052675
     0.005685246  0.665858445  0.665861882
     0.333471527  0.999938406  0.999942011
     0.333449181  0.000234961  0.332679249
     0.333031261  0.000567139  0.666882182
     0.333449077  0.332675896  0.000232962
     0.332839779  0.332984403  0.332987391
     0.334505956  0.331333815  0.666990194
     0.333031303  0.666879129  0.000570785
     0.334506452  0.666986862  0.331337439
     0.334228969  0.667387796  0.667391007
     0.666759948  0.999552680  0.999555780
     0.666380473  0.999886069  0.332926906
     0.664802201  0.002052569  0.667244030
     0.666380160  0.332923192  0.999937128
     0.667282112  0.332684629  0.332691746
     0.665798977  0.332407225  0.666028270
     0.664802120  0.667240153  0.002056123
     0.665799072  0.666021204  0.332410850
     0.659752548  0.668594935  0.668598214
     0.999689512  0.166444872  0.166448134
     0.999018497  0.164964018  0.499604151
     0.000213014  0.166379536  0.833538557
     0.999017644  0.499601496  0.164966693
     0.981124428  0.495251894  0.495254324
     0.000934186  0.499003316  0.831125519
     0.000212512  0.833535874  0.166382476
     0.000933402  0.831122141  0.499006871
     0.998214472  0.833398467  0.833401651
     0.333451756  0.166400792  0.166401589
     0.334027879  0.165246225  0.499705583
     0.333746746  0.166069263  0.833727756
     0.334028415  0.499701869  0.165247980
     0.346249154  0.499331223  0.499334385
     0.335221650  0.499255891  0.836604236
     0.333747305  0.833725987  0.166073794
     0.335222742  0.836602020  0.499258388
     0.333163905  0.833897466  0.833900769
     0.666578003  0.166220951  0.166249842
     0.665755309  0.165589777  0.499264124
     0.666323495  0.166772249  0.833749720
     0.665755291  0.499277831  0.165604183
     0.666846219  0.497667386  0.497668384
     0.664923371  0.501639368  0.835175671
     0.666323524  0.833735744  0.166760997
     0.664923641  0.835161766  0.501657459
     0.670013113  0.830303314  0.830306528
     0.166584646  0.000066524  0.166105132
     0.166733832  0.000142176  0.499498106
     0.166467284  0.999827283  0.833847599
     0.166329385  0.332091894  0.165446785
     0.165427550  0.321172747  0.500937129
     0.167088087  0.331322803  0.834393347
     0.167377790  0.667998218  0.164714161
     0.173954661  0.680793032  0.498252597
     0.166646773  0.667529897  0.834518758
     0.500069359  0.000024553  0.166293062
     0.499947869  0.000549850  0.499883305
     0.500436110  0.999574223  0.833503785
     0.499919020  0.332696053  0.166454753
     0.500709816  0.331275039  0.499296992
     0.500096215  0.332760266  0.833804214
     0.499568504  0.666921165  0.166520354
     0.500908213  0.667848743  0.499417435
     0.497656001  0.667385470  0.835779929
     0.833357640  0.000244661  0.166669742
     0.833101423  0.999617022  0.499708404
     0.833092727  0.002130441  0.835307497
     0.833249800  0.331595779  0.165226799
     0.831631170  0.327893835  0.497502688
     0.833599505  0.332941977  0.833576188
     0.833363609  0.666921124  0.166815009
     0.824621925  0.671763903  0.497095640
     0.833048847  0.668225672  0.839304335
     0.166584547  0.166101621  0.000069651
     0.166327816  0.165445284  0.332094992
     0.167377883  0.164711066  0.668001228
     0.166733848  0.499494731  0.000145065
     0.165427242  0.500934107  0.321175931
     0.173954504  0.498249252  0.680796321
     0.166467289  0.833844412  0.999830777
     0.167089627  0.834391669  0.331326623
     0.166646728  0.834515190  0.667533678
     0.500069934  0.166289814  0.000026437
     0.499936480  0.166442106  0.332698789
     0.499568453  0.166516443  0.666924561
     0.499947898  0.499880217  0.000552389
     0.500710477  0.499295008  0.331277900
     0.500907113  0.499414958  0.667851322
     0.500435595  0.833500629  0.999578286
     0.500079613  0.833791414  0.332763639
     0.497655736  0.835776754  0.667387997
     0.833357086  0.166666753  0.000246449
     0.833234595  0.165213047  0.331598592
     0.833363790  0.166811630  0.666924309
     0.833101314  0.499705115  0.999619547
     0.831630468  0.497501451  0.327896033
     0.824622632  0.497094115  0.671766074
     0.833093213  0.835304609  0.002133924
     0.833614134  0.833562446  0.332945055
     0.833049413  0.839301076  0.668228488
     0.000507378  0.166695129  0.000171732
     0.001054228  0.166243598  0.333363934
     0.000811494  0.166581418  0.666036982
     0.000082275  0.499722086  0.999328576
     0.002924109  0.499550951  0.333625696
     0.022555566  0.488196450  0.668981747
     0.001306514  0.833163533  0.001237884
     0.000884250  0.834106650  0.331809132
     0.001000985  0.832487769  0.665645725
     0.333215706  0.166568060  0.000270223
     0.332491248  0.167293344  0.333386099
     0.333417005  0.166344547  0.666178514
     0.333818182  0.499344280  0.000865405
     0.330334786  0.499457647  0.336209035
     0.332538904  0.499214816  0.663189510
     0.332806068  0.833549744  0.000109024
     0.333514065  0.833386530  0.332933597
     0.332852941  0.833513389  0.666179693
     0.666281119  0.166933232  0.999974765
     0.665903442  0.165906697  0.332497884
     0.666176591  0.166944976  0.666779772
     0.666063371  0.498703735  0.001339826
     0.662978033  0.499668971  0.328640269
     0.664306943  0.499519070  0.666927904
     0.665998856  0.833938957  0.001467188
     0.666359820  0.833144128  0.333600506
     0.656400742  0.842879066  0.664158524
     0.000507281  0.000169384  0.166698355
     0.000082352  0.999326102  0.499725525
     0.001306616  0.001234479  0.833166550
     0.001057962  0.333360716  0.166247467
     0.002923712  0.333623096  0.499553921
     0.000879812  0.331805917  0.834110585
     0.000811873  0.666033922  0.166584372
     0.022556427  0.668978498  0.488199338
     0.001001133  0.665642523  0.832491082
     0.333215778  0.000269284  0.166571229
     0.333818171  0.000863862  0.499347864
     0.332806046  0.000105140  0.833552888
     0.332487697  0.333383341  0.167295156
     0.330335488  0.336206119  0.499460387
     0.333518012  0.332930047  0.833388708
     0.333416548  0.666175190  0.166347990
     0.332538577  0.663186751  0.499218052
     0.332852765  0.666176676  0.833516680
     0.666281177  0.999956520  0.166937152
     0.666063521  0.001325634  0.498707306
     0.665998888  0.001467538  0.833943216
     0.665903036  0.332492046  0.165932938
     0.662978188  0.328634679  0.499673431
     0.666360143  0.333597541  0.833165229
     0.666176518  0.666778264  0.166946393
     0.664307031  0.666922485  0.499524827
     0.656400540  0.664151472  0.842883501
     0.166807069  0.167045793  0.167048419
     0.166979314  0.163848976  0.499373847
     0.167271111  0.166312279  0.833532717
     0.166979225  0.499370523  0.163851864
     0.956955257  0.582048677  0.582050850
     0.170589862  0.499376504  0.838010439
     0.167271244  0.833529854  0.166316163
     0.170589936  0.838007304  0.499379784
     0.166590342  0.833103317  0.833106754
     0.499395326  0.166627011  0.166630894
     0.498328692  0.166633259  0.499415822
     0.499585578  0.167003470  0.833549113
     0.498327510  0.499412547  0.166636344
     0.502288590  0.499198634  0.499202809
     0.497911789  0.498603541  0.833461624
     0.499584703  0.833546012  0.167005898
     0.497910860  0.833458438  0.498607813
     0.498084077  0.833885241  0.833888603
     0.833525371  0.165697421  0.165701517
     0.833582271  0.165563352  0.499482026
     0.833445598  0.167291143  0.833405428
     0.833583134  0.499478617  0.165566323
     0.821711779  0.480613690  0.480617431
     0.833414625  0.499781770  0.833599766
     0.833446466  0.833402416  0.167293082
     0.833415717  0.833596751  0.499785851
     0.835948841  0.842933800  0.842936823
     0.166815957  0.000156054  0.000159371
     0.167108868  0.000163899  0.332330311
     0.166920649  0.000051160  0.666950613
     0.167108843  0.332326864  0.000165949
     0.166658594  0.336308224  0.336310689
     0.171956427  0.329887580  0.664820558
     0.166920619  0.666947377  0.000054551
     0.171956756  0.664817930  0.329890760
     0.170597598  0.664882017  0.664885369
     0.499579140  0.000240594  0.000243243
     0.499471074  0.000209464  0.332939108
     0.497159310  0.002631055  0.666476657
     0.499471402  0.332935877  0.000222854
     0.498484719  0.333131572  0.333137000
     0.498872152  0.333048785  0.666203087
     0.497159273  0.666473398  0.002633494
     0.498869114  0.666198279  0.333051972
     0.497415687  0.666385352  0.666388972
     0.833523945  0.002426837  0.002429274
     0.833459189  0.999802283  0.333025953
     0.833349044  0.001652025  0.666739777
     0.833458712  0.333022853  0.999816897
     0.833764654  0.327464040  0.327469901
     0.833738598  0.333453594  0.666211737
     0.833349005  0.666736515  0.001654177
     0.833741377  0.666207066  0.333456265
     0.803005209  0.696860424  0.696864066

  ion indices of the primitive-cell ions
   primitive index   ion index
                 1           1
                 2           2
                 3           3
                 4           4
                 5           5
                 6           6
                 7           7
                 8           8
                 9           9
                10          10
                11          11
                12          12
                13          13
                14          14
                15          15
                16          16
                17          17
                18          18
                19          19
                20          20
                21          21
                22          22
                23          23
                24          24
                25          25
                26          26
                27          27
                28          28
                29          29
                30          30
                31          31
                32          32
                33          33
                34          34
                35          35
                36          36
                37          37
                38          38
                39          39
                40          40
                41          41
                42          42
                43          43
                44          44
                45          45
                46          46
                47          47
                48          48
                49          49
                50          50
                51          51
                52          52
                53          53
                54          54
                55          55
                56          56
                57          57
                58          58
                59          59
                60          60
                61          61
                62          62
                63          63
                64          64
                65          65
                66          66
                67          67
                68          68
                69          69
                70          70
                71          71
                72          72
                73          73
                74          74
                75          75
                76          76
                77          77
                78          78
                79          79
                80          80
                81          81
                82          82
                83          83
                84          84
                85          85
                86          86
                87          87
                88          88
                89          89
                90          90
                91          91
                92          92
                93          93
                94          94
                95          95
                96          96
                97          97
                98          98
                99          99
               100         100
               101         101
               102         102
               103         103
               104         104
               105         105
               106         106
               107         107
               108         108
               109         109
               110         110
               111         111
               112         112
               113         113
               114         114
               115         115
               116         116
               117         117
               118         118
               119         119
               120         120
               121         121
               122         122
               123         123
               124         124
               125         125
               126         126
               127         127
               128         128
               129         129
               130         130
               131         131
               132         132
               133         133
               134         134
               135         135
               136         136
               137         137
               138         138
               139         139
               140         140
               141         141
               142         142
               143         143
               144         144
               145         145
               146         146
               147         147
               148         148
               149         149
               150         150
               151         151
               152         152
               153         153
               154         154
               155         155
               156         156
               157         157
               158         158
               159         159
               160         160
               161         161
               162         162
               163         163
               164         164
               165         165
               166         166
               167         167
               168         168
               169         169
               170         170
               171         171
               172         172
               173         173
               174         174
               175         175
               176         176
               177         177
               178         178
               179         179
               180         180
               181         181
               182         182
               183         183
               184         184
               185         185
               186         186
               187         187
               188         188
               189         189
               190         190
               191         191
               192         192
               193         193
               194         194
               195         195
               196         196
               197         197
               198         198
               199         199
               200         200
               201         201
               202         202
               203         203
               204         204
               205         205
               206         206
               207         207
               208         208
               209         209
               210         210
               211         211
               212         212
               213         213
               214         214
               215         215
               216         216

----------------------------------------------------------------------------------------

 
 
 KPOINTS: Gamma-point only                        

Automatic generation of k-mesh.
 Grid dimensions read from file:
 generate k-points for:    1    1    1

 Generating k-lattice:

  Cartesian coordinates                     Fractional coordinates (reciprocal lattice)
     0.082788993  0.000000000  0.000000000     1.000000000  0.000000000  0.000000000
     0.000000000  0.082788993  0.000000000     0.000000000  1.000000000  0.000000000
     0.000000000  0.000000000  0.082788993     0.000000000  0.000000000  1.000000000

  Length of vectors
     0.082788993  0.082788993  0.082788993

  Shift w.r.t. Gamma in fractional coordinates (k-lattice)
     0.000000000  0.000000000  0.000000000

 
 Subroutine IBZKPT returns following result:
 ===========================================
 
 Found      1 irreducible k-points:
 
 Following reciprocal coordinates:
            Coordinates               Weight
  0.000000  0.000000  0.000000      1.000000
 
 Following cartesian coordinates:
            Coordinates               Weight
  0.000000  0.000000  0.000000      1.000000
 


--------------------------------------------------------------------------------------------------------




 Dimension of arrays:
   k-points           NKPTS =      1   k-points in BZ     NKDIM =      1   number of bands    NBANDS=    757
   number of dos      NEDOS =    301   number of ions     NIONS =    216
   non local maximal  LDIM  =      4   non local SUM 2l+1 LMDIM =      8
   total plane-waves  NPLWV = 512000
   max r-space proj   IRMAX =      1   max aug-charges    IRDMAX=   3893
   dimension x,y,z NGX =    80 NGY =   80 NGZ =   80
   dimension x,y,z NGXF=   160 NGYF=  160 NGZF=  160
   support grid    NGXF=   160 NGYF=  160 NGZF=  160
   ions per type =             108 108
   NGX,Y,Z   is equivalent  to a cutoff of  11.01, 11.01, 11.01 a.u.
   NGXF,Y,Z  is equivalent  to a cutoff of  22.02, 22.02, 22.02 a.u.

 SYSTEM =  Si                                      
 POSCAR =  Li   F                                  

 Startparameter for this run:
   NWRITE =      2    write-flag & timer
   PREC   = accura    normal or accurate (medium, high low for compatibility)
   ISTART =      1    job   : 0-new  1-cont  2-samecut
   ICHARG =      2    charge: 1-file 2-atom 10-const
   ISPIN  =      2    spin polarized calculation?
   LNONCOLLINEAR =      F non collinear calculations
   LSORBIT =      F    spin-orbit coupling
   INIWAV =      1    electr: 0-lowe 1-rand  2-diag
   LASPH  =      F    aspherical Exc in radial PAW
 Electronic Relaxation 1
   ENCUT  =  400.0 eV  29.40 Ry    5.42 a.u.  19.70 19.70 19.70*2*pi/ulx,y,z
   ENINI  =  400.0     initial cutoff
   ENAUG  =  628.9 eV  augmentation charge cutoff
   NELM   =     20;   NELMIN=  2; NELMDL=  0     # of ELM steps 
   EDIFF  = 0.1E-09   stopping-criterion for ELM
   LREAL  =      F    real-space projection
   NLSPLINE    = F    spline interpolate recip. space projectors
   LCOMPAT=      F    compatible to vasp.4.4
   GGA_COMPAT  = T    GGA compatible to vasp.4.4-vasp.4.6
   LMAXPAW     = -100 max onsite density
   LMAXMIX     =    2 max onsite mixed and CHGCAR
   VOSKOWN=      0    Vosko Wilk Nusair interpolation
   ROPT   =    0.00000   0.00000
 Ionic relaxation
   EDIFFG = -.1E-01   stopping-criterion for IOM
   NSW    =    500    number of steps for IOM
   NBLOCK =      1;   KBLOCK =    500    inner block; outer block 
   IBRION =      3    ionic relax: 0-MD 1-quasi-New 2-CG
   NFREE  =      0    steps in history (QN), initial steepest desc. (CG)
   ISIF   =      0    stress and relaxation
   IWAVPR =     11    prediction:  0-non 1-charg 2-wave 3-comb
   ISYM   =      2    0-nonsym 1-usesym 2-fastsym
   LCORR  =      T    Harris-Foulkes like correction to forces

   POTIM  = 0.0000    time-step for ionic-motion
   TEIN   =    0.0    initial temperature
   TEBEG  =    0.0;   TEEND  =   0.0 temperature during run
   SMASS  =  -3.00    Nose mass-parameter (am)
   estimated Nose-frequenzy (Omega)   =  0.10E-29 period in steps = 0.00E+00 mass=  -0.333E-26a.u.
   SCALEE = 1.0000    scale energy and forces
   NPACO  =    256;   APACO  = 10.0  distance and # of slots for P.C.
   PSTRESS=    0.0 pullay stress

  Mass of Ions in am
   POMASS =  19.00  7.01
  Ionic Valenz
   ZVAL   =   7.00  3.00
  Atomic Wigner-Seitz radii
   RWIGS  =  -1.00 -1.00
  virtual crystal weights 
   VCA    =   1.00  1.00
   NELECT =    1080.0000    total number of electrons
   NUPDOWN=      -1.0000    fix difference up-down

 DOS related values:
   EMIN   =  10.00;   EMAX   =-10.00  energy-range for DOS
   EFERMI =   0.00;   METHOD = LEGACY      
   ISMEAR =     0;   SIGMA  =   0.01  broadening in eV -4-tet -1-fermi 0-gaus

 Electronic relaxation 2 (details)
   IALGO  =     38    algorithm
   LDIAG  =      T    sub-space diagonalisation (order eigenvalues)
   LSUBROT=      F    optimize rotation matrix (better conditioning)
   TURBO    =      0    0=normal 1=particle mesh
   IRESTART =      0    0=no restart 2=restart with 2 vectors
   NREBOOT  =      0    no. of reboots
   NMIN     =      0    reboot dimension
   EREF     =   0.00    reference energy to select bands
   IMIX   =      4    mixing-type and parameters
     AMIX     =   0.40;   BMIX     =  1.00
     AMIX_MAG =   1.60;   BMIX_MAG =  1.00
     AMIN     =   0.10
     WC   =   100.;   INIMIX=   1;  MIXPRE=   1;  MAXMIX= -45

 Intra band minimization:
   WEIMIN = 0.0010     energy-eigenvalue tresh-hold
   EBREAK =  0.33E-13  absolut break condition
   DEPER  =   0.30     relativ break condition  

   TIME   =   0.40     timestep for ELM

  volume/ion in A,a.u.               =       8.16        55.06
  Fermi-wavevector in a.u.,A,eV,Ry     =   1.390557  2.627771 26.308875  1.933648
  Thomas-Fermi vector in A             =   2.514480
 
 Write flags
   LWAVE        =      T    write WAVECAR
   LDOWNSAMPLE  =      F    k-point downsampling of WAVECAR
   LCHARG       =      T    write CHGCAR
   LVTOT        =      F    write LOCPOT, total local potential
   LVHAR        =      F    write LOCPOT, Hartree potential only
   LELF         =      F    write electronic localiz. function (ELF)
   LORBIT       =      0    0 simple, 1 ext, 2 COOP (PROOUT), +10 PAW based schemes


 Dipole corrections
   LMONO  =      F    monopole corrections only (constant potential shift)
   LDIPOL =      F    correct potential (dipole corrections)
   IDIPOL =      0    1-x, 2-y, 3-z, 4-all directions 
   EPSILON=  1.0000000 bulk dielectric constant

 Exchange correlation treatment:
   GGA     =    --    GGA type
   LEXCH   =     8    internal setting for exchange type
   LIBXC   =     F    Libxc                    
   VOSKOWN =     0    Vosko Wilk Nusair interpolation
   LHFCALC =     F    Hartree Fock is set to
   LHFONE  =     F    Hartree Fock one center treatment
   AEXX    =    0.0000 exact exchange contribution

 Linear response parameters
   LEPSILON=     F    determine dielectric tensor
   LRPA    =     F    only Hartree local field effects (RPA)
   LNABLA  =     F    use nabla operator in PAW spheres
   LVEL    =     F    velocity operator in full k-point grid
   CSHIFT  =0.1000    complex shift for real part using Kramers Kronig
   OMEGAMAX=  -1.0    maximum frequency
   DEG_THRESHOLD= 0.2000000E-02 threshold for treating states as degnerate
   RTIME   =   -0.100 relaxation time in fs
  (WPLASMAI=    0.000 imaginary part of plasma frequency in eV, 0.658/RTIME)
   DFIELD  = 0.0000000 0.0000000 0.0000000 field for delta impulse in time
 
  Optional k-point grid parameters
   LKPOINTS_OPT  =     F    use optional k-point grid
   KPOINTS_OPT_MODE=     1    mode for optional k-point grid
 
 Orbital magnetization related:
   ORBITALMAG=     F  switch on orbital magnetization
   LCHIMAG   =     F  perturbation theory with respect to B field
   DQ        =  0.001000  dq finite difference perturbation B field
   LLRAUG    =     F  two centre corrections for induced B field
   LBONE     =     F  B-component reconstruction in AE one-centre
   LVGVCALC  =     T  calculate vGv susceptibility
   LVGVAPPL  =     F  apply vGv susceptibility instead of pGv for G=0

 Random number generation:
   RANDOM_GENERATOR = DEFAULT
   PCG_SEED         = not used


--------------------------------------------------------------------------------------------------------


 quickmin algorithm: (dynamic with friction)
 charge density and potential will be updated during run
 spin polarized calculation
 Variant of blocked Davidson
 Davidson routine will perform the subspace rotation
 perform sub-space diagonalisation
    after iterative eigenvector-optimisation
 modified Broyden-mixing scheme, WC =      100.0
 initial mixing is a Kerker type mixing with AMIX =  0.4000 and BMIX =      1.0000
 Hartree-type preconditioning will be used
 using additional bands           217
 reciprocal scheme for non local part
 calculate Harris-corrections to forces 
   (improved forces if not selfconsistent)
 use gradient corrections 
 use of overlap-Matrix (Vanderbilt PP)
 Gauss-broadening in eV      SIGMA  =   0.01


--------------------------------------------------------------------------------------------------------


  energy-cutoff  :      400.00
  volume of cell :     1762.31
      direct lattice vectors                 reciprocal lattice vectors
    12.078900337  0.000000000  0.000000000     0.082788993  0.000000000  0.000000000
     0.000000000 12.078900337  0.000000000     0.000000000  0.082788993  0.000000000
     0.000000000  0.000000000 12.078900337     0.000000000  0.000000000  0.082788993

  length of vectors
    12.078900337 12.078900337 12.078900337     0.082788993  0.082788993  0.082788993


 
 old parameters found on file WAVECAR:
  energy-cutoff  :      400.00
  volume of cell :     1762.31
      direct lattice vectors                 reciprocal lattice vectors
    12.078900337  0.000000000  0.000000000     0.082788993  0.000000000  0.000000000
     0.000000000 12.078900337  0.000000000     0.000000000  0.082788993  0.000000000
     0.000000000  0.000000000 12.078900337     0.000000000  0.000000000  0.082788993

  length of vectors

 
 k-points in units of 2pi/SCALE and weight: Gamma-point only                        
   0.00000000  0.00000000  0.00000000       1.000
 
 k-points in reciprocal lattice and weights: Gamma-point only                        
   0.00000000  0.00000000  0.00000000       1.000
 
 position of ions in fractional coordinates (direct lattice) 
   0.99972717  0.99992507  0.99992850
   0.00016461  0.99957539  0.33302602
   0.00018025  0.99964370  0.66657854
   0.00016463  0.33302265  0.99957798
   0.99881634  0.33392356  0.33392704
   0.00228229  0.33205009  0.66616090
   0.00017999  0.66657553  0.99964727
   0.00228192  0.66615759  0.33205268
   0.00568525  0.66585844  0.66586188
   0.33347153  0.99993841  0.99994201
   0.33344918  0.00023496  0.33267925
   0.33303126  0.00056714  0.66688218
   0.33344908  0.33267590  0.00023296
   0.33283978  0.33298440  0.33298739
   0.33450596  0.33133382  0.66699019
   0.33303130  0.66687913  0.00057078
   0.33450645  0.66698686  0.33133744
   0.33422897  0.66738780  0.66739101
   0.66675995  0.99955268  0.99955578
   0.66638047  0.99988607  0.33292691
   0.66480220  0.00205257  0.66724403
   0.66638016  0.33292319  0.99993713
   0.66728211  0.33268463  0.33269175
   0.66579898  0.33240722  0.66602827
   0.66480212  0.66724015  0.00205612
   0.66579907  0.66602120  0.33241085
   0.65975255  0.66859494  0.66859821
   0.99968951  0.16644487  0.16644813
   0.99901850  0.16496402  0.49960415
   0.00021301  0.16637954  0.83353856
   0.99901764  0.49960150  0.16496669
   0.98112443  0.49525189  0.49525432
   0.00093419  0.49900332  0.83112552
   0.00021251  0.83353587  0.16638248
   0.00093340  0.83112214  0.49900687
   0.99821447  0.83339847  0.83340165
   0.33345176  0.16640079  0.16640159
   0.33402788  0.16524623  0.49970558
   0.33374675  0.16606926  0.83372776
   0.33402842  0.49970187  0.16524798
   0.34624915  0.49933122  0.49933439
   0.33522165  0.49925589  0.83660424
   0.33374730  0.83372599  0.16607379
   0.33522274  0.83660202  0.49925839
   0.33316391  0.83389747  0.83390077
   0.66657800  0.16622095  0.16624984
   0.66575531  0.16558978  0.49926412
   0.66632349  0.16677225  0.83374972
   0.66575529  0.49927783  0.16560418
   0.66684622  0.49766739  0.49766838
   0.66492337  0.50163937  0.83517567
   0.66632352  0.83373574  0.16676100
   0.66492364  0.83516177  0.50165746
   0.67001311  0.83030331  0.83030653
   0.16658465  0.00006652  0.16610513
   0.16673383  0.00014218  0.49949811
   0.16646728  0.99982728  0.83384760
   0.16632938  0.33209189  0.16544679
   0.16542755  0.32117275  0.50093713
   0.16708809  0.33132280  0.83439335
   0.16737779  0.66799822  0.16471416
   0.17395466  0.68079303  0.49825260
   0.16664677  0.66752990  0.83451876
   0.50006936  0.00002455  0.16629306
   0.49994787  0.00054985  0.49988331
   0.50043611  0.99957422  0.83350379
   0.49991902  0.33269605  0.16645475
   0.50070982  0.33127504  0.49929699
   0.50009622  0.33276027  0.83380421
   0.49956850  0.66692117  0.16652035
   0.50090821  0.66784874  0.49941744
   0.49765600  0.66738547  0.83577993
   0.83335764  0.00024466  0.16666974
   0.83310142  0.99961702  0.49970840
   0.83309273  0.00213044  0.83530750
   0.83324980  0.33159578  0.16522680
   0.83163117  0.32789384  0.49750269
   0.83359950  0.33294198  0.83357619
   0.83336361  0.66692112  0.16681501
   0.82462193  0.67176390  0.49709564
   0.83304885  0.66822567  0.83930434
   0.16658455  0.16610162  0.00006965
   0.16632782  0.16544528  0.33209499
   0.16737788  0.16471107  0.66800123
   0.16673385  0.49949473  0.00014506
   0.16542724  0.50093411  0.32117593
   0.17395450  0.49824925  0.68079632
   0.16646729  0.83384441  0.99983078
   0.16708963  0.83439167  0.33132662
   0.16664673  0.83451519  0.66753368
   0.50006993  0.16628981  0.00002644
   0.49993648  0.16644211  0.33269879
   0.49956845  0.16651644  0.66692456
   0.49994790  0.49988022  0.00055239
   0.50071048  0.49929501  0.33127790
   0.50090711  0.49941496  0.66785132
   0.50043560  0.83350063  0.99957829
   0.50007961  0.83379141  0.33276364
   0.49765574  0.83577675  0.66738800
   0.83335709  0.16666675  0.00024645
   0.83323459  0.16521305  0.33159859
   0.83336379  0.16681163  0.66692431
   0.83310131  0.49970511  0.99961955
   0.83163047  0.49750145  0.32789603
   0.82462263  0.49709411  0.67176607
   0.83309321  0.83530461  0.00213392
   0.83361413  0.83356245  0.33294506
   0.83304941  0.83930108  0.66822849
   0.00050738  0.16669513  0.00017173
   0.00105423  0.16624360  0.33336393
   0.00081149  0.16658142  0.66603698
   0.00008228  0.49972209  0.99932858
   0.00292411  0.49955095  0.33362570
   0.02255557  0.48819645  0.66898175
   0.00130651  0.83316353  0.00123788
   0.00088425  0.83410665  0.33180913
   0.00100098  0.83248777  0.66564573
   0.33321571  0.16656806  0.00027022
   0.33249125  0.16729334  0.33338610
   0.33341700  0.16634455  0.66617851
   0.33381818  0.49934428  0.00086540
   0.33033479  0.49945765  0.33620903
   0.33253890  0.49921482  0.66318951
   0.33280607  0.83354974  0.00010902
   0.33351406  0.83338653  0.33293360
   0.33285294  0.83351339  0.66617969
   0.66628112  0.16693323  0.99997477
   0.66590344  0.16590670  0.33249788
   0.66617659  0.16694498  0.66677977
   0.66606337  0.49870373  0.00133983
   0.66297803  0.49966897  0.32864027
   0.66430694  0.49951907  0.66692790
   0.66599886  0.83393896  0.00146719
   0.66635982  0.83314413  0.33360051
   0.65640074  0.84287907  0.66415852
   0.00050728  0.00016938  0.16669835
   0.00008235  0.99932610  0.49972553
   0.00130662  0.00123448  0.83316655
   0.00105796  0.33336072  0.16624747
   0.00292371  0.33362310  0.49955392
   0.00087981  0.33180592  0.83411058
   0.00081187  0.66603392  0.16658437
   0.02255643  0.66897850  0.48819934
   0.00100113  0.66564252  0.83249108
   0.33321578  0.00026928  0.16657123
   0.33381817  0.00086386  0.49934786
   0.33280605  0.00010514  0.83355289
   0.33248770  0.33338334  0.16729516
   0.33033549  0.33620612  0.49946039
   0.33351801  0.33293005  0.83338871
   0.33341655  0.66617519  0.16634799
   0.33253858  0.66318675  0.49921805
   0.33285277  0.66617668  0.83351668
   0.66628118  0.99995652  0.16693715
   0.66606352  0.00132563  0.49870731
   0.66599889  0.00146754  0.83394322
   0.66590304  0.33249205  0.16593294
   0.66297819  0.32863468  0.49967343
   0.66636014  0.33359754  0.83316523
   0.66617652  0.66677826  0.16694639
   0.66430703  0.66692248  0.49952483
   0.65640054  0.66415147  0.84288350
   0.16680707  0.16704579  0.16704842
   0.16697931  0.16384898  0.49937385
   0.16727111  0.16631228  0.83353272
   0.16697922  0.49937052  0.16385186
   0.95695526  0.58204868  0.58205085
   0.17058986  0.49937650  0.83801044
   0.16727124  0.83352985  0.16631616
   0.17058994  0.83800730  0.49937978
   0.16659034  0.83310332  0.83310675
   0.49939533  0.16662701  0.16663089
   0.49832869  0.16663326  0.49941582
   0.49958558  0.16700347  0.83354911
   0.49832751  0.49941255  0.16663634
   0.50228859  0.49919863  0.49920281
   0.49791179  0.49860354  0.83346162
   0.49958470  0.83354601  0.16700590
   0.49791086  0.83345844  0.49860781
   0.49808408  0.83388524  0.83388860
   0.83352537  0.16569742  0.16570152
   0.83358227  0.16556335  0.49948203
   0.83344560  0.16729114  0.83340543
   0.83358313  0.49947862  0.16556632
   0.82171178  0.48061369  0.48061743
   0.83341463  0.49978177  0.83359977
   0.83344647  0.83340242  0.16729308
   0.83341572  0.83359675  0.49978585
   0.83594884  0.84293380  0.84293682
   0.16681596  0.00015605  0.00015937
   0.16710887  0.00016390  0.33233031
   0.16692065  0.00005116  0.66695061
   0.16710884  0.33232686  0.00016595
   0.16665859  0.33630822  0.33631069
   0.17195643  0.32988758  0.66482056
   0.16692062  0.66694738  0.00005455
   0.17195676  0.66481793  0.32989076
   0.17059760  0.66488202  0.66488537
   0.49957914  0.00024059  0.00024324
   0.49947107  0.00020946  0.33293911
   0.49715931  0.00263106  0.66647666
   0.49947140  0.33293588  0.00022285
   0.49848472  0.33313157  0.33313700
   0.49887215  0.33304878  0.66620309
   0.49715927  0.66647340  0.00263349
   0.49886911  0.66619828  0.33305197
   0.49741569  0.66638535  0.66638897
   0.83352394  0.00242684  0.00242927
   0.83345919  0.99980228  0.33302595
   0.83334904  0.00165202  0.66673978
   0.83345871  0.33302285  0.99981690
   0.83376465  0.32746404  0.32746990
   0.83373860  0.33345359  0.66621174
   0.83334900  0.66673651  0.00165418
   0.83374138  0.66620707  0.33345627
   0.80300521  0.69686042  0.69686407
 
 position of ions in cartesian coordinates  (Angst):
  12.07560486 12.07799529 12.07803665
   0.00198825 12.07377152  4.02258813
   0.00217725 12.07459659  8.05153570
   0.00198850  4.02254743 12.07380284
  12.06460299  4.03342936  4.03347149
   0.02756756  4.01079997  8.04649113
   0.00217409  8.05149939 12.07463971
   0.02756304  8.04645110  4.01083117
   0.06867152  8.04283779  8.04287932
   4.02796935 12.07815635 12.07819990
   4.02769943  0.00283807  4.01839950
   4.02265141  0.00685042  8.05520341
   4.02769817  4.01835899  0.00281392
   4.02033852  4.02208542  4.02212151
   4.04046410  4.00214814  8.05650808
   4.02265192  8.05516654  0.00689445
   4.04047009  8.05646783  4.00219191
   4.03711841  8.06131068  8.06134946
   8.05372696 12.07349720 12.07353465
   8.04914332 12.07752418  4.02139092
   8.03007953  0.02479278  8.05957414
   8.04913954  4.02134605 12.07814091
   8.06003413  4.01846447  4.01855044
   8.04211949  4.01511374  8.04488909
   8.03007856  8.05952731  0.02483570
   8.04212063  8.04480374  4.01515753
   7.96908528  8.07589159  8.07593120
  12.07514998  2.01047102  2.01051042
  12.06704487  1.99258394  6.03466874
   0.00257297  2.00968184 10.06822916
  12.06703456  6.03463668  1.99261624
  11.85090419  5.98209827  5.98212762
   0.01128394  6.02741132 10.03908231
   0.00256691 10.06819675  2.00971734
   0.01127447 10.03904151  6.02745427
  12.05733313 10.06653702 10.06657548
   4.02773053  2.00993858  2.00994820
   4.03468946  1.99599269  6.03589394
   4.03129368  2.00593407 10.07051447
   4.03469594  6.03584908  1.99601388
   4.18230902  6.03137208  6.03141028
   4.04910890  6.03046215 10.10525919
   4.03130043 10.07049311  2.00598881
   4.04912209 10.10523243  6.03049232
   4.02425361 10.07256439 10.07260428
   8.05152927  2.00776631  2.00811527
   8.04159202  2.00014242  6.03056159
   8.04845509  2.01442537 10.07077978
   8.04159181  6.03072716  2.00031642
   8.05476902  6.01127476  6.01128681
   8.03154312  6.05925193 10.08800369
   8.04845544 10.07061095  2.01428947
   8.03154640 10.08783574  6.05947045
   8.09302161 10.02915098 10.02918980
   2.01215933  0.00080354  2.00636734
   2.01396134  0.00171733  6.03338785
   2.01074173 12.07681411 10.07196205
   2.00907606  4.01130490  1.99841523
   1.99818289  3.87941360  6.05076966
   2.01824035  4.00201511 10.07855408
   2.02173964  8.06868390  1.98956594
   2.10118101  8.22323119  6.01834347
   2.01290976  8.06302709 10.08006891
   6.04028795  0.00029658  2.00863733
   6.03882048  0.00664159  6.03804063
   6.04471790 12.07375742 10.06780915
   6.03847202  4.01860246  2.01059037
   6.04802396  4.00143818  6.03095861
   6.04061235  4.01937809 10.07143800
   6.03423817  8.05567429  2.01138276
   6.05042039  8.06687840  6.03241343
   6.01113723  8.06128257 10.09530246
  10.06604388  0.00295523  2.01318721
  10.06294906 12.07427438  6.03592801
  10.06284402  0.02573338 10.08959601
  10.06474129  4.00531236  1.99575804
  10.04519002  3.96059695  6.00928538
  10.06896534  4.02157296 10.06868370
  10.06611598  8.05567378  2.01494187
   9.96052605  8.11416923  6.00436870
  10.06231400  8.07143129 10.13787342
   2.01215814  2.00632493  0.00084131
   2.00905712  1.99839710  4.01134231
   2.02174077  1.98952855  8.06872026
   2.01396153  6.03334708  0.00175222
   1.99817916  6.05073316  3.87945206
   2.10117911  6.01830306  8.22327091
   2.01074179 10.07192355 12.07685631
   2.01825896 10.07853382  4.00206125
   2.01290922 10.08002581  8.06307276
   6.04029490  2.00859809  0.00031934
   6.03868292  2.01043760  4.01863551
   6.03423756  2.01133552  8.05571530
   6.03882084  6.03800333  0.00667225
   6.04803195  6.03093464  4.00147274
   6.05040709  6.03238350  8.06690956
   6.04471168 10.06777103 12.07380650
   6.04041181 10.07128339  4.01941883
   6.01113404 10.09526411  8.06131310
  10.06603718  2.01315110  0.00297684
  10.06455763  1.99559193  4.00534634
  10.06611816  2.01490105  8.05571226
  10.06294774  6.03588828 12.07430488
  10.04518154  6.00927045  3.96062351
   9.96053459  6.00435027  8.11419546
  10.06284989 10.08956113  0.02577545
  10.06914204 10.06851771  4.02161014
  10.06232084 10.13783405  8.07146531
   0.00612857  2.01349385  0.00207433
   0.01273391  2.00803985  4.02666974
   0.00980195  2.01212035  8.04499432
   0.00099380  6.03609327 12.07079028
   0.03532002  6.03402615  4.02983153
   0.27244643  5.89687626  8.08056385
   0.01578126 10.06369928  0.01495227
   0.01068077 10.07509109  4.00788943
   0.01209079 10.05553679  8.04026838
   4.02487931  2.01195899  0.00326399
   4.01612864  2.02071963  4.02693747
   4.02731077  2.00925920  8.04670388
   4.03215655  6.03152979  0.01045314
   3.99008095  6.03289914  4.06103542
   4.01670428  6.02996601  8.01060000
   4.01993132 10.06836429  0.00131689
   4.02848315 10.06639284  4.02147174
   4.02049751 10.06792516  8.04671812
   8.04794324  2.01636987 12.07859553
   8.04338131  2.00397046  4.01620880
   8.04668065  2.01651173  8.05396641
   8.04531307  6.02379271  0.01618362
   8.00804559  6.03545170  3.96961305
   8.02409736  6.03364106  8.05575568
   8.04453381 10.07306555  0.01772202
   8.04889386 10.06346488  4.02952727
   7.92859914 10.18105224  8.02230461
   0.00612739  0.00204598  2.01353281
   0.00099472 12.07076039  6.03613481
   0.01578249  0.01491115 10.06373572
   0.01277901  4.02663087  2.00808658
   0.03531522  4.02980012  6.03406202
   0.01062716  4.00785061 10.07513863
   0.00980653  8.04495737  2.01215602
   0.27245684  8.08052460  5.89691115
   0.01209258  8.04022969 10.05557681
   4.02488018  0.00325265  2.01199727
   4.03215641  0.01043450  6.03157308
   4.01993106  0.00126998 10.06840226
   4.01608576  4.02690414  2.02074152
   3.99008944  4.06100020  6.03293224
   4.02853082  4.02142886 10.06641915
   4.02730525  8.04666372  2.00930079
   4.01670033  8.01056667  6.03000509
   4.02049538  8.04668168 10.06796491
   8.04794393 12.07837515  2.01641722
   8.04531489  0.01601220  6.02383584
   8.04453420  0.01772624 10.07311700
   8.04337641  4.01613829  2.00428742
   8.00804746  3.96954554  6.03550557
   8.04889775  4.02949145 10.06371977
   8.04667976  8.05394820  2.01652884
   8.02409841  8.05569023  6.03371060
   7.92859671  8.02221944 10.18110580
   2.01484597  2.01772949  2.01776120
   2.01692650  1.97911545  6.03188693
   2.02045108  2.00886944 10.06815862
   2.01692542  6.03184677  1.97915033
  11.55896717  7.03050796  7.03053421
   2.06053794  6.03191902 10.12224457
   2.02045269 10.06812403  2.00891636
   2.06053884 10.12220671  6.03195864
   2.01222814 10.06297194 10.06301345
   6.03214637  2.01267105  2.01271796
   6.01926261  2.01274653  6.03239394
   6.03444441  2.01721827 10.06835667
   6.01924833  6.03235439  2.01278380
   6.06709382  6.02977055  6.02982098
   6.01422688  6.02258248 10.06729989
   6.03443384 10.06831921  2.01724760
   6.01421566 10.06726141  6.02263409
   6.01630793 10.07241671 10.07245733
  10.06806988  2.00144264  2.00149211
  10.06875717  1.99982323  6.03319361
  10.06710632  2.02069305 10.06662110
  10.06876759  6.03315243  1.99985911
   9.92537469  5.80528486  5.80533005
  10.06673220  6.03681419 10.06896850
  10.06711680 10.06658473  2.02071646
  10.06674539 10.06893208  6.03686349
  10.09734273 10.18171336 10.18174988
   2.01495332  0.00188496  0.00192502
   2.01849137  0.00197973  4.01418470
   2.01621788  0.00061796  8.05602999
   2.01849107  4.01414307  0.00200449
   2.01305254  4.06223352  4.06226330
   2.07704454  3.98467920  8.03030127
   2.01621752  8.05599090  0.00065892
   2.07704852  8.03026952  3.98471762
   2.06063139  8.03104362  8.03108411
   6.03436664  0.00290611  0.00293811
   6.03306133  0.00253009  4.02153831
   6.00513776  0.03178025  8.05030511
   6.03306528  4.02149927  0.00269184
   6.02114724  4.02386306  4.02392863
   6.02582700  4.02286308  8.04700069
   6.00513731  8.05026575  0.03180972
   6.02579031  8.04694262  4.02290158
   6.00823451  8.04920225  8.04924597
  10.06805266  0.02931352  0.02934296
  10.06727048 12.07651214  4.02258730
  10.06594005  0.01995464  8.05348332
  10.06726472  4.02254985 12.07668865
  10.07096016  3.95540551  3.95547629
  10.07064543  4.02775273  8.04710517
  10.06593957  8.05344391  0.01998064
  10.07067900  8.04704875  4.02778499
   9.69941990  8.41730761  8.41735160
 


--------------------------------------------------------------------------------------------------------


 k-point   1 :   0.0000 0.0000 0.0000  plane waves:   31919

 maximum and minimum number of plane-waves per node :     31919    31919

 maximum number of plane-waves:     31919
 maximum index in each direction: 
   IXMAX=   19   IYMAX=   19   IZMAX=   19
   IXMIN=  -19   IYMIN=  -19   IZMIN=  -19


 serial   3D FFT for wavefunctions
 parallel 3D FFT for charge:
    minimum data exchange during FFTs selected (reduces bandwidth)


 total amount of memory used by VASP MPI-rank0  1466161. kBytes
=======================================================================

   base      :      30000. kBytes
   nonl-proj :     114397. kBytes
   fftplans  :     141100. kBytes
   grid      :     372121. kBytes
   one-center:       1327. kBytes
   wavefun   :     807216. kBytes
 
     INWAV:  cpu time      0.3937: real time      0.9081
 Broyden mixing: mesh for mixing (old mesh)
   NGX = 39   NGY = 39   NGZ = 39
  (NGX  =160   NGY  =160   NGZ  =160)
  gives a total of  59319 points

 initial charge density was supplied:
 charge density of overlapping atoms calculated
 number of electron    1080.0000000 magnetization     216.0000000
 keeping initial charge density in first step


--------------------------------------------------------------------------------------------------------


 Maximum index for augmentation-charges          3641 (set IRDMAX)


--------------------------------------------------------------------------------------------------------


 First call to EWALD:  gamma=   0.147
 Maximum number of real-space cells 3x 3x 3
 Maximum number of reciprocal cells 3x 3x 3

    FEWALD:  cpu time      0.2523: real time      0.2529


--------------------------------------- Ionic step        1  -------------------------------------------




--------------------------------------- Iteration      1(   1)  ---------------------------------------


    POTLOK:  cpu time      0.1290: real time      0.1421
    SETDIJ:  cpu time      0.7058: real time      0.7079
     EDDAV:  cpu time      9.3453: real time      9.3761
       DOS:  cpu time      0.0003: real time      0.0003
    CHARGE:  cpu time      0.4729: real time      0.4745
    MIXING:  cpu time      0.0628: real time      0.0630
    --------------------------------------------
      LOOP:  cpu time     10.7162: real time     10.7639

 eigenvalue-minimisations  :  3028
 total energy-change (2. order) :-0.9287227E+03  (-0.4059242E+03)
 number of electron    1079.9999912 magnetization     142.4005295
 augmentation part      258.7156636 magnetization     143.9715279

 Broyden mixing:
  rms(total) = 0.13408E+02    rms(broyden)= 0.13396E+02
  rms(prec ) = 0.13738E+02
  weight for this iteration     100.00

 Free energy of the ion-electron system (eV)
  ---------------------------------------------------
  alpha Z        PSCENC =      2167.32059008
  Ewald energy   TEWEN  =    -60000.46124751
  -Hartree energ DENC   =    -23130.09822359
  -exchange      EXHF   =         0.00000000
  -V(xc)+E(xc)   XCENC  =      5435.94434671
  PAW double counting   =     53780.49107149   -55988.61141440
  entropy T*S    EENTRO =        -0.00000000
  eigenvalues    EBANDS =    -16288.16565266
  atomic energy  EATOM  =     93094.85783989
  Solvation  Ediel_sol  =         0.00000000
  ---------------------------------------------------
  free energy    TOTEN  =      -928.72268998 eV

  energy without entropy =     -928.72268998  energy(sigma->0) =     -928.72268998


--------------------------------------------------------------------------------------------------------




--------------------------------------- Iteration      1(   2)  ---------------------------------------


    POTLOK:  cpu time      0.0988: real time      0.0996
    SETDIJ:  cpu time      0.7041: real time      0.7061
     EDDAV:  cpu time      9.4406: real time      9.4681
       DOS:  cpu time      0.0003: real time      0.0003
    CHARGE:  cpu time      0.4492: real time      0.4508
    MIXING:  cpu time      0.0647: real time      0.0650
    --------------------------------------------
      LOOP:  cpu time     10.7576: real time     10.7898

 eigenvalue-minimisations  :  3172
 total energy-change (2. order) : 0.4570142E+03  (-0.8223904E+02)
 number of electron    1079.9999908 magnetization     104.2969210
 augmentation part      257.8926814 magnetization      89.7784178

 Broyden mixing:
  rms(total) = 0.64874E+01    rms(broyden)= 0.64840E+01
  rms(prec ) = 0.67480E+01
  weight for this iteration     100.00

 eigenvalues of (default mixing * dielectric matrix)
  average eigenvalue GAMMA=   0.7379
  0.7379

 Free energy of the ion-electron system (eV)
  ---------------------------------------------------
  alpha Z        PSCENC =      2167.32059008
  Ewald energy   TEWEN  =    -60000.46124751
[...]
      4.03036      2.01584      8.04217         0.000887     -0.001184      0.000420
      4.04272      6.03613      0.00734         0.000924     -0.000529      0.000835
      3.96258      6.03029      4.09009         0.002162      0.000840      0.000844
      3.95590      6.03468      7.98372         0.018942     -0.001572      0.001161
      4.03057     10.06528      0.00072        -0.001117      0.000256     -0.000222
      4.02394     10.05885      4.02944         0.003226      0.001420     -0.000953
      4.02316     10.05957      8.04736        -0.000033     -0.001673     -0.000927
      8.04343      2.01180     12.07733         0.001755     -0.000014      0.000349
      8.04017      2.00713      4.02086         0.001136     -0.001634     -0.000961
      8.04239      2.01005      8.05012         0.001134     -0.000760      0.001404
      8.04151      6.03439      0.00265         0.001750     -0.001127      0.000414
      8.01893      6.03286      3.98405        -0.006038      0.001427     -0.008242
      8.03551      6.03173      8.05248         0.002944     -0.003388      0.003187
      8.04216     10.06827      0.00515         0.000374      0.001326      0.001733
      8.04805     10.06303      4.02419        -0.000047      0.001797     -0.001198
      8.01395     10.09890      8.05137        -0.009966      0.010046     -0.001032
      0.00496      0.01593      1.99749         0.001401     -0.003303      0.003609
      0.00535     12.10898      6.02857         0.001932     -0.008255      0.001126
      0.00788      0.00712     10.07846         0.001747     -0.000766     -0.004171
      0.01626      4.01612      2.01320         0.001871      0.005462      0.001325
      0.08296      4.01940      6.01010         0.002425      0.014449      0.008462
      0.00891      3.94502     10.14206         0.002060      0.017042     -0.016024
      0.01683      8.04928      1.99058         0.001362     -0.001579      0.006261
      0.22325      8.34096      5.73378         0.045423     -0.060516      0.045211
      0.02607      8.07052     10.11459         0.003603     -0.007659     -0.009982
      4.03040      0.00076      2.01340        -0.000783      0.000044     -0.000299
      4.04272      0.00729      6.03618         0.000924      0.000835     -0.000529
      4.03057      0.00067     10.06533        -0.001117     -0.000220      0.000255
      4.02229      4.03131      2.02241        -0.000578     -0.000294     -0.000241
      3.96258      4.09003      6.03035         0.002162      0.000843      0.000841
      4.02394      4.02939     10.05890         0.003226     -0.000952      0.001421
      4.03036      8.04212      2.01589         0.000889      0.000419     -0.001185
      3.95590      7.98366      6.03473         0.018942      0.001160     -0.001573
      4.02316      8.04731     10.05963        -0.000033     -0.000925     -0.001673
      8.04343     12.07728      2.01185         0.001755      0.000351     -0.000014
      8.04151      0.00259      6.03444         0.001750      0.000416     -0.001127
      8.04216      0.00510     10.06832         0.000374      0.001733      0.001325
      8.04017      4.02081      2.00718         0.001136     -0.000961     -0.001635
      8.01893      3.98399      6.03291        -0.006037     -0.008241      0.001429
      8.04805      4.02414     10.06308        -0.000047     -0.001199      0.001797
      8.04239      8.05007      2.01009         0.001134      0.001403     -0.000760
      8.03551      8.05244      6.03178         0.002943      0.003186     -0.003389
      8.01395      8.05132     10.09895        -0.009966     -0.001029      0.010045
      2.02379      2.01955      2.01960        -0.001105      0.000027      0.000029
      2.03044      1.99862      6.02835        -0.001644      0.001771      0.001143
      2.02708      2.01004     10.06543        -0.001002      0.000751     -0.000106
      2.03044      6.02830      1.99868        -0.001644      0.001144      0.001771
     11.24851      7.04322      7.04326        -0.192030      0.011517      0.011525
      2.07144      6.04168     10.12601         0.008441     -0.003974     -0.001286
      2.02708     10.06538      2.01009        -0.001001     -0.000107      0.000748
      2.07145     10.12596      6.04173         0.008440     -0.001289     -0.003974
      2.02476     10.06706     10.06711         0.000693     -0.004167     -0.004170
      6.03312      2.01323      2.01328         0.000269     -0.000218     -0.000218
      6.02374      2.01776      6.03539        -0.000532     -0.001722     -0.000306
      6.03505      2.01680     10.06237         0.000546     -0.000685      0.001194
      6.02374      6.03534      2.01781        -0.000532     -0.000307     -0.001724
      6.03250      6.03591      6.03596         0.004130     -0.001423     -0.001423
      6.02506      6.03523     10.05274         0.001761     -0.001117      0.003240
      6.03505     10.06232      2.01685         0.000546      0.001194     -0.000684
      6.02506     10.05269      6.03528         0.001761      0.003241     -0.001118
      6.03004     10.06540     10.06545        -0.001847      0.001394      0.001392
     10.05997      2.00492      2.00497         0.003226     -0.001415     -0.001415
     10.06527      2.00046      6.02858         0.003943     -0.002257      0.001217
     10.05852      2.00373     10.07018         0.003074      0.001664      0.000482
     10.06528      6.02853      2.00051         0.003943      0.001217     -0.002258
      9.94599      5.82500      5.82505        -0.032986     -0.033916     -0.033917
     10.06537      6.03135     10.10773         0.001050     -0.005929     -0.004318
     10.05852     10.07013      2.00377         0.003073      0.000481      0.001665
     10.06538     10.10768      6.03141         0.001051     -0.004319     -0.005928
     10.06568     10.10760     10.10765         0.001397      0.007604      0.007605
      2.02385      0.00154      0.00159        -0.001335     -0.000880     -0.000881
      2.02709      0.01076      4.01326        -0.000639     -0.001004     -0.000116
      2.02898      0.00888      8.06090        -0.000812     -0.001865     -0.001197
      2.02709      4.01321      0.01081        -0.000639     -0.000116     -0.001001
      2.02196      4.08257      4.08262         0.002189      0.001137      0.001137
      2.06465      4.02145      7.98164         0.011475      0.000263      0.005441
      2.02898      8.06085      0.00893        -0.000811     -0.001196     -0.001866
      2.06465      7.98159      4.02150         0.011476      0.005442      0.000260
      2.02398      8.00499      8.00505         0.008983     -0.018552     -0.018551
      6.03607     -0.00011     -0.00005        -0.000266      0.000822      0.000822
      6.03456     -0.00354      4.02539         0.000924      0.001044     -0.000883
      6.03041      0.00413      8.04965        -0.001655      0.001738      0.000521
      6.03457      4.02534     -0.00349         0.000924     -0.000883      0.001043
      6.02121      4.03072      4.03077        -0.000519     -0.000974     -0.000973
      6.02242      4.03598      8.04167         0.002245     -0.002837      0.001225
      6.03041      8.04960      0.00418        -0.001654      0.000521      0.001737
      6.02242      8.04162      4.03603         0.002245      0.001223     -0.002837
      6.00994      8.04020      8.04025         0.001100      0.001452      0.001452
     10.05857      0.00603      0.00608         0.002680      0.001540      0.001540
     10.05751     12.08768      4.01679         0.003393     -0.001877     -0.000211
     10.05996      0.01628      8.05584         0.002701      0.001478     -0.000720
     10.05751      4.01674     12.08774         0.003393     -0.000211     -0.001877
     10.07317      3.97855      3.97860         0.000690     -0.008478     -0.008479
     10.07004      3.97943      8.04618        -0.000376      0.003705      0.006676
     10.05996      8.05579      0.01633         0.002701     -0.000720      0.001478
     10.07004      8.04614      3.97947        -0.000378      0.006674      0.003706
      9.90964      8.23345      8.23350        -0.050829      0.037135      0.037133
 -----------------------------------------------------------------------------------
    total drift:                                0.027261     -0.007832     -0.007839


--------------------------------------------------------------------------------------------------------



  FREE ENERGIE OF THE ION-ELECTRON SYSTEM (eV)
  ---------------------------------------------------
  free  energy   TOTEN  =     -1054.17395529 eV

  energy  without entropy=    -1054.17395529  energy(sigma->0) =    -1054.17395529
 
 d Force = 0.6433371E-02[ 0.587E-02, 0.700E-02]  d Energy = 0.6434316E-02-0.945E-06
 d Force =-0.6212112E-01[-0.800E-01,-0.443E-01]  d Ewald  =-0.6212730E-01 0.618E-05


--------------------------------------------------------------------------------------------------------


    POTLOK:  cpu time      0.8409: real time      0.8433


--------------------------------------------------------------------------------------------------------


 NEB: the previous image is higher in energy:  T
 NEB: the next image is higher in energy    :  F
 NEB: only prev energy greater

 NEB: Tangent
 ----------------------------------------------
      0.00248     -0.00508     -0.00508
      0.00430     -0.01372      0.01446
      0.00283     -0.01034     -0.00926
      0.00430      0.01446     -0.01372
     -0.00096      0.04413      0.04413
      0.00501      0.07002     -0.01164
      0.00283     -0.00926     -0.01034
      0.00501     -0.01164      0.07001
     -0.01616     -0.11956     -0.11956
     -0.00243     -0.00064     -0.00064
      0.00118      0.00705     -0.00346
     -0.00642      0.00046      0.00109
      0.00118     -0.00346      0.00705
     -0.00114     -0.00031     -0.00031
      0.02644     -0.01822      0.00187
     -0.00641      0.00109      0.00046
      0.02644      0.00187     -0.01823
      0.03263      0.00562      0.00562
      0.00505      0.00070      0.00070
      0.00463      0.00518     -0.00275
      0.00561      0.00681      0.00237
      0.00463     -0.00275      0.00518
      0.01043     -0.00137     -0.00137
     -0.00930     -0.01802     -0.00180
      0.00561      0.00237      0.00680
     -0.00931     -0.00181     -0.01802
     -0.05068      0.02186      0.02185
      0.00295      0.00992      0.00992
      0.00525      0.00709      0.00657
      0.00383      0.01440     -0.01376
      0.00525      0.00657      0.00709
     -0.03188      0.15038      0.15038
      0.00865      0.00420     -0.09074
      0.00383     -0.01376      0.01439
      0.00865     -0.09075      0.00420
     -0.00219     -0.03144     -0.03144
     -0.00173      0.00093      0.00093
     -0.00512      0.00048     -0.00108
      0.00111     -0.00561      0.00284
     -0.00512     -0.00108      0.00048
      0.02737     -0.00512     -0.00512
      0.02668     -0.00360      0.02379
      0.00111      0.00284     -0.00562
      0.02668      0.02379     -0.00361
     -0.00422      0.00039      0.00039
      0.00590      0.00048      0.00048
      0.00957     -0.00406     -0.00244
      0.00374     -0.00384      0.00319
      0.00957     -0.00244     -0.00407
     -0.02508     -0.01847     -0.01847
     -0.01270      0.00135      0.01982
      0.00373      0.00319     -0.00384
     -0.01270      0.01982      0.00134
      0.00526      0.00293      0.00293
     -0.00234      0.00205     -0.00163
     -0.00473     -0.00603      0.00009
     -0.00564     -0.00537     -0.00458
     -0.00489      0.00354      0.00635
     -0.00259      0.01777      0.00569
      0.01707     -0.00811      0.00562
     -0.00246     -0.00114      0.00571
      0.15705      0.01796     -0.02981
     -0.00821     -0.00821     -0.02119
      0.00195      0.00241     -0.00179
      0.00387      0.01066     -0.00112
      0.00093     -0.00034      0.00196
      0.00278     -0.00151      0.00157
      0.00185     -0.01106     -0.00447
      0.00552     -0.00678      0.00681
      0.00325      0.00052     -0.00781
      0.00799      0.00378     -0.00547
     -0.00285      0.00447      0.01358
      0.00752      0.00223     -0.00086
      0.01397     -0.00975      0.00093
      0.00854      0.00365      0.00184
      0.01067     -0.00083     -0.00158
      0.01179     -0.00618     -0.00734
     -0.00813     -0.00912      0.00810
      0.01139     -0.00138      0.00766
     -0.21849      0.05014     -0.02860
     -0.00090      0.00983      0.00881
     -0.00234     -0.00163      0.00205
     -0.00489      0.00635      0.00354
     -0.00246      0.00571     -0.00114
     -0.00473      0.00009     -0.00603
     -0.00259      0.00569      0.01777
      0.15705     -0.02982      0.01796
     -0.00564     -0.00458     -0.00537
      0.01707      0.00562     -0.00811
     -0.00821     -0.02119     -0.00821
      0.00195     -0.00179      0.00241
      0.00278      0.00157     -0.00151
      0.00325     -0.00780      0.00052
      0.00387     -0.00111      0.01066
      0.00185     -0.00447     -0.01106
      0.00800     -0.00547      0.00378
      0.00093      0.00196     -0.00034
      0.00552      0.00681     -0.00678
     -0.00286      0.01358      0.00447
      0.00752     -0.00086      0.00223
      0.01067     -0.00158     -0.00083
      0.01139      0.00767     -0.00138
      0.01397      0.00093     -0.00975
      0.01179     -0.00734     -0.00618
     -0.21849     -0.02859      0.05014
      0.00854      0.00184      0.00365
     -0.00813      0.00810     -0.00912
     -0.00090      0.00881      0.00983
      0.00438      0.01097     -0.00929
      0.00615      0.00392      0.01560
      0.00524      0.02247     -0.00404
      0.00652      0.00275     -0.02726
      0.00809      0.02731      0.04905
      0.14151      0.14759     -0.19256
      0.00589     -0.01090     -0.00107
      0.00598     -0.05152      0.05530
      0.00917     -0.03255     -0.02431
     -0.00090     -0.00118      0.00056
     -0.00072      0.00003      0.00001
      0.00300     -0.00379      0.00183
      0.00228     -0.00147      0.00302
      0.00584      0.00333      0.00330
      0.05505     -0.00524      0.00328
     -0.00304     -0.00034     -0.00184
      0.00959      0.00465     -0.00289
     -0.00139     -0.00570     -0.00390
      0.00321     -0.00017      0.00035
      0.00206     -0.00511     -0.00258
      0.00376     -0.00154      0.00354
      0.00459     -0.00335      0.00110
     -0.01813      0.00431     -0.02583
      0.01666     -0.00944      0.00912
      0.00109      0.00341      0.00527
     -0.00062      0.00419     -0.00304
     -0.02959      0.03085     -0.00334
      0.00438     -0.00929      0.01097
      0.00652     -0.02727      0.00275
      0.00589     -0.00107     -0.01090
      0.00615      0.01560      0.00392
      0.00808      0.04904      0.02731
      0.00598      0.05531     -0.05151
      0.00524     -0.00405      0.02247
      0.14151     -0.19257      0.14758
      0.00917     -0.02432     -0.03255
     -0.00090      0.00056     -0.00118
      0.00228      0.00302     -0.00147
     -0.00304     -0.00184     -0.00035
     -0.00072      0.00001      0.00004
      0.00584      0.00329      0.00333
      0.00959     -0.00289      0.00465
      0.00300      0.00182     -0.00379
      0.05505      0.00328     -0.00524
     -0.00139     -0.00390     -0.00570
      0.00321      0.00035     -0.00017
      0.00459      0.00110     -0.00335
      0.00109      0.00527      0.00340
      0.00206     -0.00258     -0.00511
     -0.01813     -0.02582      0.00431
     -0.00062     -0.00304      0.00420
      0.00376      0.00354     -0.00155
      0.01666      0.00912     -0.00945
     -0.02959     -0.00333      0.03085
     -0.00161      0.00010      0.00010
     -0.00488      0.00640      0.00354
     -0.00222      0.00272      0.00131
     -0.00488      0.00353      0.00640
     -0.63753      0.04061      0.04061
      0.02533     -0.01343     -0.00430
     -0.00222      0.00130      0.00272
      0.02533     -0.00431     -0.01343
      0.00158     -0.01309     -0.01309
      0.00033     -0.00064     -0.00064
     -0.00234     -0.00480     -0.00004
      0.00102     -0.00261      0.00196
     -0.00234     -0.00004     -0.00481
      0.01458     -0.00368     -0.00368
      0.00599     -0.00289      0.00860
      0.00102      0.00196     -0.00261
      0.00599      0.00860     -0.00289
     -0.00567      0.00251      0.00251
      0.00772     -0.00505     -0.00505
      0.01298     -0.00622      0.00308
      0.00918      0.00601      0.00200
      0.01298      0.00308     -0.00622
     -0.10299     -0.11018     -0.11018
      0.00417     -0.01886     -0.01568
      0.00918      0.00200      0.00601
      0.00417     -0.01568     -0.01886
      0.00417      0.02505      0.02505
     -0.00212     -0.00229     -0.00229
     -0.00163     -0.00290     -0.00125
     -0.00341     -0.00548     -0.00302
     -0.00163     -0.00125     -0.00290
      0.00799      0.00253      0.00253
      0.03460      0.00039      0.01827
     -0.00341     -0.00302     -0.00548
      0.03460      0.01827      0.00038
      0.02306     -0.05899     -0.05899
     -0.00040      0.00047      0.00046
      0.00151      0.00272     -0.00164
     -0.00535      0.00466      0.00009
      0.00151     -0.00164      0.00272
     -0.00134     -0.00222     -0.00222
      0.00768     -0.00783      0.00302
     -0.00535      0.00009      0.00466
      0.00768      0.00302     -0.00783
      0.00578      0.00376      0.00376
      0.00723      0.00498      0.00498
      0.00928     -0.00629     -0.00181
      0.00928      0.00507     -0.00131
      0.00928     -0.00181     -0.00629
      0.00229     -0.02843     -0.02844
      0.00078      0.01502      0.02096
      0.00928     -0.00131      0.00507
      0.00078      0.02095      0.01502
     -0.15560      0.11637      0.11636

 NEB: forces: par spring, perp REAL, dneb     0.000759    0.015360    0.000000
 NEB: distance to prev, next image, angle between     0.687288    0.687439  157.549687
 NEB: projections on to tangent (spring, REAL)     0.000759    0.310931

 stress matrix after NEB project (eV)
      0.00000      0.00000      0.00000
      0.00000      0.00000      0.00000
      0.00000      0.00000      0.00000
  FORCES: max atom, RMS     0.007504    0.001046
  FORCE total and by dimension    0.015379    0.005713
  Stress total and by dimension    0.000000    0.000000
 OPT: skip step - force has converged


--------------------------------------------------------------------------------------------------------


  
 reached required accuracy - stopping structural energy minimisation
 writing wavefunctions
     LOOP+:  cpu time    266.9760: real time    268.2295
    4ORBIT:  cpu time      0.0000: real time      0.0000

 total amount of memory used by VASP MPI-rank0  1466161. kBytes
=======================================================================

   base      :      30000. kBytes
   nonl-proj :     114397. kBytes
   fftplans  :     141100. kBytes
   grid      :     372121. kBytes
   one-center:       1327. kBytes
   wavefun   :     807216. kBytes
 
  
  
 General timing and accounting informations for this job:
 ========================================================
  
                  Total CPU time used (sec):     7155.372
                            User time (sec):     7094.143
                          System time (sec):       61.228
                         Elapsed time (sec):     7182.071
  
                   Maximum memory used (kb):     3101472.
                   Average memory used (kb):          N/A
  
                          Minor page faults:      1004006
                          Major page faults:            0
                 Voluntary context switches:       287762
