 vasp.6.4.2 20Jul23 (build Jun  3 2025 15:36:07) complex                         
 executed on              LinuxNV date 2025.06.27  12:57:04
 running    7 mpi-ranks, with    1 threads/rank, on    7 nodes
 each image running on    1 cores
 distrk:  each k-point on    1 cores,    1 groups
 distr:  one band on NCORE=   1 cores,    1 groups
 OpenACC runtime initialized ...    7 GPUs detected


--------------------------------------------------------------------------------------------------------


 INCAR:
   SYSTEM = Si
   ISTART = 1
   ICHARG = 2
   NCORE = 8
   ISPIN = 2
   NELECT = 1080
   NELM = 20
   ENCUT = 400
   PREC = Accurate
   ISMEAR = 0
   SIGMA = 0.01
   EDIFF = 1E-10
   IBRION = 3
   NSW = 500
   POTIM = 0
   ISIF = 0
   IOPT = 1
   EDIFFG = -0.010
   ICHAIN = 0
   IMAGES = 7
   SPRING = -5.0
   LCLIMB = .FALSE.

 POTCAR:   PAW_PBE F 08Apr2002                    
 POTCAR:    PAW_PBE Li_sv 10Sep2004               
 -----------------------------------------------------------------------------
|                                                                             |
|           W    W    AA    RRRRR   N    N  II  N    N   GGGG   !!!           |
|           W    W   A  A   R    R  NN   N  II  NN   N  G    G  !!!           |
|           W    W  A    A  R    R  N N  N  II  N N  N  G       !!!           |
|           W WW W  AAAAAA  RRRRR   N  N N  II  N  N N  G  GGG   !            |
|           WW  WW  A    A  R   R   N   NN  II  N   NN  G    G                |
|           W    W  A    A  R    R  N    N  II  N    N   GGGG   !!!           |
|                                                                             |
|     You use a magnetic or noncollinear calculation, but did not specify     |
|     the initial magnetic moment with the MAGMOM tag. Note that a            |
|     default of 1 will be used for all atoms. This ferromagnetic setup       |
|     may break the symmetry of the crystal, in particular it may rule        |
|     out finding an antiferromagnetic solution. Thence, we recommend         |
|     setting the initial magnetic moment manually or verifying carefully     |
|     that this magnetic setup is desired.                                    |
|                                                                             |
 -----------------------------------------------------------------------------

 POTCAR:   PAW_PBE F 08Apr2002                    
   VRHFIN =F: s2p5                                                                                  
   LEXCH  = PE                                                                                      
   EATOM  =   659.4942 eV,   48.4715 Ry                                                             
                                                                                                    
   TITEL  = PAW_PBE F 08Apr2002                                                                     
   LULTRA =        F    use ultrasoft PP ?                                                          
   IUNSCR =        0    unscreen: 0-lin 1-nonlin 2-no                                               
   RPACOR =     .000    partial core radius                                                         
   POMASS =   18.998; ZVAL   =    7.000    mass and valenz                                          
   RCORE  =    1.520    outmost cutoff radius                                                       
   RWIGS  =    1.500; RWIGS  =     .794    wigner-seitz radius (au A)                               
   ENMAX  =  400.000; ENMIN  =  300.000 eV                                                          
   ICORE  =        2    local potential                                                             
   LCOR   =        T    correct aug charges                                                         
   LPAW   =        T    paw PP                                                                      
   EAUG   =  613.614                                                                                
   DEXC   =     .000                                                                                
   RMAX   =    2.254    core radius for proj-oper                                                   
   RAUG   =    1.300    factor for augmentation sphere                                              
   RDEP   =    1.539    radius for radial grids                                                     
   QCUT   =   -5.545; QGAM   =   11.091    optimization parameters                                  
                                                                                                    
   Description                                                                                      
     l     E      TYP  RCUT    TYP  RCUT                                                            
     0   .000     23  1.200                                                                         
     0  -.700     23  1.200                                                                         
     1   .000     23  1.520                                                                         
     1   .100     23  1.520                                                                         
     2   .000      7  1.500                                                                         
  local pseudopotential read in
  atomic valenz-charges read in
  non local Contribution for L=            0  read in
    real space projection operators read in
  non local Contribution for L=            0  read in
    real space projection operators read in
  non local Contribution for L=            1  read in
    real space projection operators read in
  non local Contribution for L=            1  read in
    real space projection operators read in
    PAW grid and wavefunctions read in
 
   number of l-projection  operators is LMAX  =            4
   number of lm-projection operators is LMMAX =            8
 
 POTCAR:    PAW_PBE Li_sv 10Sep2004               
   VRHFIN =Li: 1s2s2p                                                                               
   LEXCH  = PE                                                                                      
   EATOM  =   202.7858 eV,   14.9043 Ry                                                             
                                                                                                    
   TITEL  = PAW_PBE Li_sv 10Sep2004                                                                 
   LULTRA =        F    use ultrasoft PP ?                                                          
   IUNSCR =        0    unscreen: 0-lin 1-nonlin 2-no                                               
   RPACOR =     .000    partial core radius                                                         
   POMASS =    7.010; ZVAL   =    3.000    mass and valenz                                          
   RCORE  =    1.700    outmost cutoff radius                                                       
   RWIGS  =    2.050; RWIGS  =    1.085    wigner-seitz radius (au A)                               
   ENMAX  =  499.034; ENMIN  =  374.276 eV                                                          
   ICORE  =        2    local potential                                                             
   LCOR   =        T    correct aug charges                                                         
   LPAW   =        T    paw PP                                                                      
   EAUG   =  628.945                                                                                
   RMAX   =    2.064    core radius for proj-oper                                                   
   RAUG   =    1.300    factor for augmentation sphere                                              
   RDEP   =    1.728    radius for radial grids                                                     
   QCUT   =   -6.056; QGAM   =   12.112    optimization parameters                                  
                                                                                                    
   Description                                                                                      
     l     E      TYP  RCUT    TYP  RCUT                                                            
     0   .000     23  1.400                                                                         
     0   .000     23  1.700                                                                         
     1   .000     23  1.400                                                                         
     2   .000     23  1.400                                                                         
  local pseudopotential read in
  atomic valenz-charges read in
  non local Contribution for L=            0  read in
    real space projection operators read in
  non local Contribution for L=            0  read in
    real space projection operators read in
  non local Contribution for L=            1  read in
    real space projection operators read in
    PAW grid and wavefunctions read in
 
   number of l-projection  operators is LMAX  =            3
   number of lm-projection operators is LMMAX =            5
 
 -----------------------------------------------------------------------------
|                                                                             |
|               ----> ADVICE to this user running VASP <----                  |
|                                                                             |
|     You have a (more or less) 'large supercell' and for larger cells it     |
|     might be more efficient to use real-space projection operators.         |
|     Therefore, try LREAL= Auto in the INCAR file.                           |
|     Mind: If you want to do very accurate calculations, keep the            |
|     reciprocal projection scheme (i.e. LREAL=.FALSE.).                      |
|                                                                             |
 -----------------------------------------------------------------------------

 PAW_PBE F 08Apr2002                    :
 energy of atom  1       EATOM= -659.4942
 kinetic energy error for atom=    0.1980 (will be added to EATOM!!)
  PAW_PBE Li_sv 10Sep2004               :
 energy of atom  2       EATOM= -202.7858
 kinetic energy error for atom=    0.0926 (will be added to EATOM!!)
 
 
 POSCAR: Li   F
  positions in direct lattice
  No initial velocities read in
 exchange correlation table for  LEXCH =        8
   RHO(1)=    0.500       N(1)  =     2000
   RHO(2)=  100.500       N(2)  =     4000

 VTST: version 4.1, (05/19/21)

 CHAIN: initializing optimizer
 
 OPT: Using LBFGS optimizer
 OPT: LBFGS, Init
 OPT: LBFGS, MEMORY             20
 OPT: LBFGS, IMAGES              7
 OPT: LBFGS, MAXMOVE      0.200000
 OPT: LBFGS, LGLOBAL      T
 OPT: LBFGS, INVCURV      0.010000
 OPT: LBFGS, LLINEOPT      F
 OPT: LBFGS, FDSTEP       0.005000
 OPT: LBFGS, LAUTOSCALE      T
 OPT: LBFGS, DAMPING      2.000000
 
 CHAIN: Read ICHAIN             0
 CHAIN: Running the NEB
 NEB:          SPRING     -5.000000
 NEB:          LCLIMB      F
 NEB:     LTANGENTOLD      F
 NEB:           LDNEB      F
 NEB:        LDNEBORG      F
 NEB:        LNEBCELL      F
 NEB:          EFIRST      0.000000
 NEB:           ELAST      0.000000
 
 POSCAR: Li   F
  positions in direct lattice
  No initial velocities read in
 
 POSCAR: Li   F
  positions in direct lattice
  No initial velocities read in
 
 POSCAR: Li   F
  positions in direct lattice
  No initial velocities read in
 
 POSCAR: Li   F
  positions in direct lattice
  No initial velocities read in
 


--------------------------------------------------------------------------------------------------------


 ion  position               nearest neighbor table
   1  1.000  1.000  1.000- 208 2.01 136 2.01 109 2.01 115 2.01 138 2.01 190 2.02
   2  0.000  1.000  0.333- 116 2.00 136 2.01 110 2.01 137 2.01 209 2.01 191 2.02
   3  0.000  1.000  0.667- 138 2.01 192 2.01 210 2.01 137 2.02 111 2.02 117 2.02
   4  0.000  0.333  1.000- 141 2.00 109 2.01 139 2.01 112 2.01 211 2.01 193 2.02
   5  0.999  0.334  0.334- 212 2.00 140 2.00 113 2.00 139 2.02 110 2.02 194 2.03
   6  0.002  0.332  0.666- 114 1.92 111 2.00 140 2.01 141 2.03 213 2.03 195 2.04
   7  0.000  0.667  1.000- 115 2.01 196 2.01 214 2.01 112 2.02 142 2.02 144 2.02
   8  0.002  0.666  0.332- 143 1.92 142 2.00 113 2.01 116 2.03 215 2.03 197 2.04
   9  0.004  0.665  0.665- 167 1.50 198 2.01 117 2.03 144 2.03 114 2.12 143 2.12
  10  0.333  1.000  1.000- 199 2.01 124 2.01 147 2.01 145 2.01 118 2.01 190 2.01
  11  0.333  0.000  0.333- 200 2.01 145 2.01 191 2.01 146 2.01 125 2.02 119 2.02
  12  0.333  0.000  0.667- 201 1.99 120 2.00 192 2.01 147 2.01 126 2.02 146 2.02
  13  0.333  0.333  0.000- 202 2.01 118 2.01 193 2.01 121 2.01 150 2.01 148 2.02
  14  0.333  0.333  0.333- 203 2.00 119 2.00 148 2.00 194 2.01 149 2.01 122 2.01
  15  0.334  0.332  0.667- 195 1.97 204 1.99 120 2.00 150 2.01 149 2.02 123 2.03
  16  0.333  0.667  0.000- 205 1.99 151 2.00 196 2.01 124 2.01 153 2.02 121 2.02
  17  0.334  0.667  0.332- 197 1.97 206 1.99 151 2.00 125 2.01 122 2.02 152 2.03
  18  0.334  0.667  0.667- 207 1.98 198 1.98 126 2.01 153 2.01 152 2.03 123 2.03
  19  0.667  1.000  1.000- 156 2.00 133 2.00 208 2.01 199 2.02 127 2.02 154 2.02
  20  0.666  1.000  0.333- 155 2.00 154 2.01 128 2.01 134 2.01 200 2.02 209 2.02
  21  0.665  0.002  0.667- 135 1.94 129 2.00 156 2.01 201 2.02 155 2.03 210 2.03
  22  0.666  0.333  1.000- 130 2.00 157 2.01 127 2.01 159 2.01 202 2.02 211 2.02
  23  0.667  0.333  0.333- 212 2.01 157 2.01 128 2.01 158 2.02 131 2.02 203 2.03
  24  0.666  0.333  0.666- 129 2.00 158 2.01 204 2.02 132 2.02 159 2.02 213 2.03
  25  0.665  0.667  0.002- 162 1.94 160 2.00 133 2.01 205 2.02 130 2.03 214 2.03
  26  0.666  0.666  0.333- 160 2.00 131 2.01 206 2.02 161 2.02 134 2.02 215 2.03
  27  0.661  0.668  0.668- 216 1.82 207 1.97 161 2.04 132 2.04 135 2.09 162 2.09
  28  1.000  0.166  0.166- 181 2.01 136 2.01 109 2.01 110 2.02 139 2.02 163 2.02
  29  0.999  0.165  0.500- 182 2.00 137 2.00 110 2.01 111 2.01 164 2.03 140 2.03
  30  0.000  0.166  0.834- 138 2.00 141 2.00 109 2.01 183 2.01 165 2.02 111 2.02
  31  0.999  0.500  0.165- 184 2.00 112 2.00 139 2.01 142 2.01 166 2.03 113 2.03
  32  0.978  0.489  0.489- 167 1.52 185 1.87 113 1.90 140 1.90 143 2.22 114 2.22
  33  0.001  0.499  0.831- 114 1.98 144 2.01 141 2.02 186 2.02 112 2.03 168 2.04
  34  0.000  0.834  0.166- 115 2.00 116 2.00 136 2.01 187 2.01 169 2.02 142 2.02
  35  0.001  0.831  0.499- 143 1.98 117 2.01 116 2.02 188 2.02 137 2.03 170 2.04
  36  0.999  0.833  0.833- 189 1.97 144 2.02 117 2.02 138 2.03 115 2.03 171 2.03
  37  0.333  0.166  0.166- 172 2.01 118 2.01 145 2.01 163 2.01 148 2.02 119 2.02
  38  0.334  0.165  0.500- 173 1.99 146 1.99 119 2.01 120 2.01 164 2.02 149 2.06
  39  0.334  0.166  0.834- 174 2.00 147 2.01 165 2.01 118 2.01 150 2.02 120 2.02
  40  0.334  0.500  0.165- 175 1.99 121 1.99 148 2.01 151 2.01 166 2.02 122 2.06
  41  0.344  0.499  0.499- 176 1.91 149 1.98 122 1.98 123 1.99 152 1.99
  42  0.335  0.499  0.836- 177 1.97 121 1.99 168 1.99 150 2.01 153 2.02 123 2.08
  43  0.334  0.834  0.166- 178 2.00 124 2.01 169 2.01 145 2.01 125 2.02 151 2.02
  44  0.335  0.836  0.499- 179 1.97 146 1.99 170 1.99 125 2.01 126 2.02 152 2.08
  45  0.333  0.834  0.834- 180 2.00 147 2.01 124 2.01 171 2.01 153 2.02 126 2.02
  46  0.667  0.166  0.166- 128 2.01 154 2.01 127 2.01 157 2.01 181 2.02 172 2.02
  47  0.666  0.166  0.499- 158 1.98 155 1.99 128 2.01 173 2.02 129 2.02 182 2.02
  48  0.666  0.167  0.834- 156 2.00 127 2.01 174 2.01 159 2.01 129 2.02 183 2.02
  49  0.666  0.499  0.166- 131 1.98 130 1.99 157 2.01 175 2.02 160 2.02 184 2.02
  50  0.667  0.498  0.498- 185 1.91 176 1.99 131 2.04 158 2.04 161 2.04 132 2.04
  51  0.665  0.501  0.835- 162 1.97 130 2.01 177 2.02 159 2.03 132 2.03 186 2.03
  52  0.666  0.834  0.167- 133 2.00 154 2.01 178 2.01 134 2.01 160 2.02 187 2.02
  53  0.665  0.835  0.501- 135 1.97 155 2.01 179 2.02 134 2.03 161 2.03 188 2.03
  54  0.669  0.831  0.831- 189 2.01 135 2.02 162 2.02 133 2.06 156 2.06 180 2.07
  55  0.167  0.000  0.166- 190 2.01 136 2.01 191 2.01 169 2.01 145 2.01 163 2.02
  56  0.167  0.000  0.500- 170 1.97 164 1.98 137 2.01 146 2.02 191 2.02 192 2.02
  57  0.167  1.000  0.834- 138 2.00 190 2.01 147 2.01 165 2.01 171 2.01 192 2.02
  58  0.166  0.332  0.166- 163 2.00 139 2.00 193 2.00 148 2.01 166 2.02 194 2.06
  59  0.166  0.323  0.501- 164 1.92 140 1.98 195 1.99 194 2.00 149 2.00
  60  0.167  0.332  0.834- 165 2.00 193 2.00 141 2.01 150 2.01 168 2.03 195 2.04
  61  0.167  0.668  0.165- 196 1.99 197 2.00 169 2.00 151 2.01 142 2.01 166 2.03
  62  0.173  0.678  0.499- 143 1.87 170 1.92 152 1.94 198 2.02 197 2.04
  63  0.167  0.667  0.834- 196 2.00 171 2.00 144 2.00 153 2.01 168 2.03 198 2.04
  64  0.500  0.000  0.166- 199 2.01 154 2.01 178 2.01 172 2.01 200 2.01 145 2.01
  65  0.500  0.000  0.500- 173 2.01 155 2.01 146 2.01 201 2.01 200 2.02 179 2.02
  66  0.500  1.000  0.833- 156 2.00 180 2.00 199 2.01 201 2.02 174 2.02 147 2.02
  67  0.500  0.333  0.166- 157 2.01 172 2.01 202 2.01 203 2.01 175 2.01 148 2.02
  68  0.501  0.332  0.499- 158 1.97 173 1.99 203 2.01 204 2.02 176 2.03 149 2.05
  69  0.500  0.333  0.834- 174 2.00 177 2.00 159 2.01 202 2.01 150 2.01 204 2.02
  70  0.500  0.667  0.167- 205 1.99 151 2.01 206 2.01 160 2.01 178 2.01 175 2.02
  71  0.501  0.668  0.500- 161 1.98 179 2.00 206 2.01 207 2.02 152 2.03 176 2.03
  72  0.498  0.667  0.835- 162 1.93 153 1.99 180 2.01 205 2.02 177 2.03 207 2.04
  73  0.833  0.000  0.167- 208 1.99 181 2.00 209 2.01 187 2.01 154 2.02 136 2.02
  74  0.833  1.000  0.500- 182 2.01 188 2.01 209 2.01 137 2.02 210 2.02 155 2.02
  75  0.833  0.002  0.835- 189 1.94 183 2.00 208 2.02 156 2.02 138 2.03 210 2.03
  76  0.833  0.332  0.165- 212 1.97 211 2.00 181 2.01 157 2.02 139 2.02 184 2.03
  77  0.832  0.329  0.498- 185 1.88 182 1.97 158 2.03 213 2.03 212 2.05 140 2.06
  78  0.834  0.333  0.834- 183 2.00 211 2.01 186 2.01 159 2.02 141 2.02 213 2.02
  79  0.833  0.667  0.167- 214 2.00 187 2.01 215 2.01 160 2.02 184 2.02 142 2.02
  80  0.826  0.671  0.498- 161 1.95 188 1.97 215 1.99
  81  0.833  0.668  0.838- 216 1.82 214 1.97 144 2.03 186 2.03 189 2.09 162 2.11
  82  0.167  0.166  0.000- 190 2.01 109 2.01 193 2.01 165 2.01 118 2.01 163 2.02
  83  0.166  0.166  0.332- 163 2.00 110 2.00 191 2.00 119 2.01 164 2.02 194 2.06
  84  0.167  0.165  0.668- 192 1.99 195 2.00 165 2.00 120 2.01 111 2.01 164 2.03
  85  0.167  0.500  0.000- 168 1.97 166 1.98 112 2.01 121 2.02 193 2.02 196 2.02
  86  0.166  0.501  0.323- 166 1.92 113 1.98 197 1.99 194 2.00 122 2.00
  87  0.173  0.499  0.678- 114 1.87 168 1.92 123 1.94 198 2.02 195 2.04
  88  0.167  0.834  1.000- 115 2.00 190 2.01 124 2.01 169 2.01 171 2.01 196 2.02
  89  0.167  0.834  0.332- 169 2.00 191 2.00 116 2.01 125 2.01 170 2.03 197 2.04
  90  0.167  0.834  0.667- 192 2.00 171 2.00 117 2.00 126 2.01 170 2.03 198 2.04
  91  0.500  0.166  0.000- 199 2.01 127 2.01 174 2.01 172 2.01 202 2.01 118 2.02
  92  0.500  0.166  0.333- 128 2.01 172 2.01 200 2.01 203 2.01 173 2.01 119 2.02
  93  0.500  0.167  0.667- 201 1.99 120 2.01 204 2.01 129 2.01 174 2.01 173 2.02
  94  0.500  0.500  0.000- 175 2.01 130 2.01 121 2.01 205 2.01 202 2.02 177 2.02
  95  0.501  0.499  0.332- 131 1.97 175 1.99 203 2.01 206 2.02 176 2.03 122 2.05
  96  0.501  0.500  0.668- 132 1.98 177 2.00 204 2.01 207 2.02 123 2.03 176 2.03
  97  0.500  0.833  1.000- 133 2.00 180 2.00 199 2.01 205 2.02 178 2.02 124 2.02
  98  0.500  0.834  0.333- 178 2.00 179 2.00 134 2.01 200 2.01 125 2.01 206 2.02
  99  0.498  0.835  0.667- 135 1.94 126 1.99 180 2.01 201 2.02 179 2.03 207 2.04
 100  0.833  0.167  0.000- 208 1.99 181 2.00 211 2.01 183 2.01 127 2.02 109 2.02
 101  0.833  0.165  0.332- 212 1.97 209 2.00 181 2.01 128 2.02 110 2.02 182 2.03
 102  0.833  0.167  0.667- 210 2.00 183 2.01 213 2.01 129 2.02 182 2.02 111 2.02
 103  0.833  0.500  1.000- 184 2.01 186 2.01 211 2.01 112 2.02 214 2.02 130 2.02
 104  0.832  0.498  0.329- 185 1.88 184 1.97 131 2.03 215 2.03 212 2.05 113 2.06
 105  0.826  0.498  0.671- 132 1.95 186 1.97 213 1.99
 106  0.833  0.835  0.002- 189 1.94 187 2.00 208 2.02 133 2.02 115 2.03 214 2.03
 107  0.834  0.834  0.333- 187 2.00 209 2.01 188 2.01 134 2.02 116 2.02 215 2.02
 108  0.833  0.838  0.668- 216 1.82 210 1.97 117 2.03 188 2.03 189 2.09 135 2.11
 109  0.000  0.167  0.000-  82 2.01  28 2.01   4 2.01  30 2.01   1 2.01 100 2.02
 110  0.001  0.166  0.333-  83 2.00  29 2.01   2 2.01  28 2.02   5 2.02 101 2.02
 111  0.001  0.167  0.666-   6 2.00  29 2.01  84 2.01   3 2.02 102 2.02  30 2.02
 112  0.000  0.500  0.999-  31 2.00  85 2.01   4 2.01   7 2.02 103 2.02  33 2.03
 113  0.002  0.500  0.334-  32 1.90  86 1.98   5 2.00   8 2.01  31 2.03 104 2.06
 114  0.019  0.490  0.669- 167 1.54  87 1.87   6 1.92  33 1.98   9 2.12  32 2.22
 115  0.001  0.833  0.001-  34 2.00  88 2.00   7 2.01   1 2.01  36 2.03 106 2.03
 116  0.001  0.834  0.332-  34 2.00   2 2.00  89 2.01  35 2.02 107 2.02   8 2.03
 117  0.001  0.833  0.666-  90 2.00  35 2.01   3 2.02  36 2.02 108 2.03   9 2.03
 118  0.333  0.167  0.000-  13 2.01  37 2.01  39 2.01  82 2.01  10 2.01  91 2.02
 119  0.333  0.167  0.333-  14 2.00  83 2.01  38 2.01  37 2.02  11 2.02  92 2.02
 120  0.333  0.166  0.666-  15 2.00  12 2.00  84 2.01  93 2.01  38 2.01  39 2.02
 121  0.334  0.499  0.001-  42 1.99  40 1.99  94 2.01  13 2.01  85 2.02  16 2.02
 122  0.331  0.500  0.336-  41 1.98  86 2.00  14 2.01  17 2.02  95 2.05  40 2.06
 123  0.333  0.499  0.664-  87 1.94  41 1.99  15 2.03  18 2.03  96 2.03  42 2.08
 124  0.333  0.834  0.000-  43 2.01  45 2.01  88 2.01  10 2.01  16 2.01  97 2.02
 125  0.333  0.833  0.333-  44 2.01  17 2.01  89 2.01  98 2.01  11 2.02  43 2.02
 126  0.333  0.833  0.666-  99 1.99  18 2.01  90 2.01  44 2.02  12 2.02  45 2.02
 127  0.666  0.167  1.000-  22 2.01  91 2.01  48 2.01  46 2.01 100 2.02  19 2.02
 128  0.666  0.166  0.333-  92 2.01  20 2.01  46 2.01  47 2.01  23 2.01 101 2.02
 129  0.666  0.167  0.667-  21 2.00  24 2.00  93 2.01  48 2.02 102 2.02  47 2.02
 130  0.666  0.499  0.001-  49 1.99  22 2.00  94 2.01  51 2.01 103 2.02  25 2.03
 131  0.664  0.500  0.329-  95 1.97  49 1.98  26 2.01  23 2.02 104 2.03  50 2.04
 132  0.665  0.500  0.667- 105 1.95  96 1.98  24 2.02  51 2.03  27 2.04  50 2.04
 133  0.666  0.834  0.001-  52 2.00  97 2.00  19 2.00  25 2.01 106 2.02  54 2.06
 134  0.666  0.833  0.334-  98 2.01  20 2.01  52 2.01  26 2.02 107 2.02  53 2.03
 135  0.658  0.841  0.665-  99 1.94  21 1.94  53 1.97  54 2.02  27 2.09 108 2.11 216 2.58
 136  0.000  0.000  0.167-  55 2.01  28 2.01   2 2.01  34 2.01   1 2.01  73 2.02
 137  0.000  0.999  0.500-  29 2.00  56 2.01   2 2.01   3 2.02  74 2.02  35 2.03
 138  0.001  0.001  0.833-  30 2.00  57 2.00   3 2.01   1 2.01  36 2.03  75 2.03
 139  0.001  0.333  0.166-  58 2.00  31 2.01   4 2.01  28 2.02   5 2.02  76 2.02
 140  0.002  0.334  0.500-  32 1.90  59 1.98   5 2.00   6 2.01  29 2.03  77 2.06
 141  0.001  0.332  0.834-  30 2.00   4 2.00  60 2.01  33 2.02  78 2.02   6 2.03
 142  0.001  0.666  0.167-   8 2.00  31 2.01  61 2.01   7 2.02  79 2.02  34 2.02
 143  0.019  0.669  0.490- 167 1.54  62 1.87   8 1.92  35 1.98   9 2.12  32 2.22
 144  0.001  0.666  0.833-  63 2.00  33 2.01   7 2.02  36 2.02  81 2.03   9 2.03
 145  0.333  0.000  0.167-  11 2.01  37 2.01  43 2.01  55 2.01  10 2.01  64 2.01
 146  0.334  0.001  0.499-  44 1.99  38 1.99  65 2.01  11 2.01  56 2.02  12 2.02
 147  0.333  0.000  0.834-  39 2.01  45 2.01  57 2.01  10 2.01  12 2.01  66 2.02
 148  0.333  0.333  0.167-  14 2.00  58 2.01  40 2.01  37 2.02  13 2.02  67 2.02
 149  0.331  0.336  0.500-  41 1.98  59 2.00  14 2.01  15 2.02  68 2.05  38 2.06
 150  0.333  0.333  0.833-  42 2.01  15 2.01  60 2.01  69 2.01  13 2.01  39 2.02
 151  0.333  0.666  0.166-  17 2.00  16 2.00  61 2.01  70 2.01  40 2.01  43 2.02
 152  0.333  0.664  0.499-  62 1.94  41 1.99  17 2.03  18 2.03  71 2.03  44 2.08
 153  0.333  0.666  0.833-  72 1.99  18 2.01  63 2.01  42 2.02  16 2.02  45 2.02
 154  0.666  1.000  0.167-  20 2.01  52 2.01  64 2.01  46 2.01  73 2.02  19 2.02
 155  0.666  0.001  0.499-  47 1.99  20 2.00  65 2.01  53 2.01  74 2.02  21 2.03
 156  0.666  0.001  0.834-  48 2.00  66 2.00  19 2.00  21 2.01  75 2.02  54 2.06
 157  0.666  0.333  0.166-  22 2.01  67 2.01  46 2.01  23 2.01  49 2.01  76 2.02
 158  0.664  0.329  0.500-  68 1.97  47 1.98  24 2.01  23 2.02  77 2.03  50 2.04
 159  0.666  0.334  0.833-  69 2.01  22 2.01  48 2.01  24 2.02  78 2.02  51 2.03
 160  0.666  0.667  0.167-  25 2.00  26 2.00  70 2.01  52 2.02  79 2.02  49 2.02
 161  0.665  0.667  0.500-  80 1.95  71 1.98  26 2.02  53 2.03  27 2.04  50 2.04
 162  0.658  0.665  0.841-  72 1.93  25 1.94  51 1.97  54 2.02  27 2.09  81 2.11 216 2.58
 163  0.167  0.167  0.167-  58 2.00  83 2.00  37 2.01  82 2.02  55 2.02  28 2.02
 164  0.167  0.164  0.499-  59 1.92  56 1.98  38 2.02  83 2.02  29 2.03  84 2.03
 165  0.167  0.166  0.833-  60 2.00  84 2.00  39 2.01  57 2.01  82 2.01  30 2.02
 166  0.167  0.499  0.164-  86 1.92  85 1.98  40 2.02  58 2.02  31 2.03  61 2.03
 167  0.999  0.577  0.577-   9 1.50  32 1.52 143 1.54 114 1.54 198 2.56
 168  0.170  0.499  0.837-  87 1.92  85 1.97  42 1.99  60 2.03  63 2.03  33 2.04
 169  0.167  0.833  0.166-  89 2.00  61 2.00  43 2.01  88 2.01  55 2.01  34 2.02
 170  0.170  0.837  0.499-  62 1.92  56 1.97  44 1.99  89 2.03  90 2.03  35 2.04
 171  0.167  0.833  0.833-  90 2.00  63 2.00  45 2.01  88 2.01  57 2.01  36 2.03
 172  0.499  0.167  0.167-  37 2.01  92 2.01  67 2.01  64 2.01  91 2.01  46 2.02
 173  0.499  0.167  0.500-  38 1.99  68 1.99  65 2.01  92 2.01  47 2.02  93 2.02
 174  0.500  0.167  0.834-  69 2.00  39 2.00  91 2.01  93 2.01  48 2.01  66 2.02
 175  0.499  0.500  0.167-  40 1.99  95 1.99  94 2.01  67 2.01  49 2.02  70 2.02
 176  0.502  0.499  0.499-  41 1.91  50 1.99  68 2.03  95 2.03  96 2.03  71 2.03
 177  0.498  0.499  0.833-  42 1.97  96 2.00  69 2.00  51 2.02  94 2.02  72 2.03
 178  0.500  0.834  0.167-  98 2.00  43 2.00  64 2.01  70 2.01  52 2.01  97 2.02
 179  0.498  0.833  0.499-  44 1.97  71 2.00  98 2.00  53 2.02  65 2.02  99 2.03
 180  0.498  0.834  0.834-  45 2.00  66 2.00  97 2.00  72 2.01  99 2.01  54 2.07
 181  0.833  0.166  0.166-  73 2.00 100 2.00 101 2.01  76 2.01  28 2.01  46 2.02
 182  0.834  0.166  0.500-  77 1.97  29 2.00  74 2.01 102 2.02  47 2.02 101 2.03
 183  0.833  0.167  0.833-  75 2.00  78 2.00 102 2.01  30 2.01 100 2.01  48 2.02
 184  0.834  0.500  0.166- 104 1.97  31 2.00 103 2.01  79 2.02  49 2.02  76 2.03
 185  0.824  0.484  0.484-  32 1.87  77 1.88 104 1.88  50 1.91
 186  0.833  0.500  0.834- 105 1.97 103 2.01  78 2.01  33 2.02  51 2.03  81 2.03
 187  0.833  0.833  0.167- 106 2.00 107 2.00  79 2.01  34 2.01  73 2.01  52 2.02
 188  0.833  0.834  0.500-  80 1.97  74 2.01 107 2.01  35 2.02  53 2.03 108 2.03
 189  0.836  0.841  0.841-  75 1.94 106 1.94  36 1.97  54 2.01  81 2.09 108 2.09 216 2.58
 190  0.167  0.000  0.000-  82 2.01  55 2.01  88 2.01  57 2.01  10 2.01   1 2.02
 191  0.167  0.000  0.332-  83 2.00  89 2.00  55 2.01  11 2.01   2 2.02  56 2.02
 192  0.167  0.000  0.667-  84 1.99  90 2.00  12 2.01   3 2.01  57 2.02  56 2.02
 193  0.167  0.332  0.000-  58 2.00  60 2.00  82 2.01  13 2.01   4 2.02  85 2.02
 194  0.167  0.336  0.336-  86 2.00  59 2.00  14 2.01   5 2.03  83 2.06  58 2.06
 195  0.171  0.330  0.665-  15 1.97  59 1.99  84 2.00  87 2.04  60 2.04   6 2.04
 196  0.167  0.667  0.000-  61 1.99  63 2.00  16 2.01   7 2.01  88 2.02  85 2.02
 197  0.171  0.665  0.330-  17 1.97  86 1.99  61 2.00  62 2.04  89 2.04   8 2.04
 198  0.170  0.665  0.665-  18 1.98   9 2.01  62 2.02  87 2.02  90 2.04  63 2.04 167 2.56
 199  0.500  0.000  0.000-  91 2.01  64 2.01  10 2.01  66 2.01  97 2.01  19 2.02
 200  0.500  0.000  0.333-  11 2.01  92 2.01  98 2.01  64 2.01  20 2.02  65 2.02
 201  0.498  0.002  0.667-  93 1.99  12 1.99  65 2.01  99 2.02  66 2.02  21 2.02
 202  0.500  0.333  0.000-  13 2.01  67 2.01  69 2.01  91 2.01  22 2.02  94 2.02
 203  0.499  0.333  0.333-  14 2.00  68 2.01  95 2.01  67 2.01  92 2.01  23 2.03
 204  0.499  0.333  0.666-  15 1.99  96 2.01  93 2.01  24 2.02  68 2.02  69 2.02
 205  0.498  0.667  0.002-  70 1.99  16 1.99  94 2.01  72 2.02  97 2.02  25 2.02
 206  0.499  0.666  0.333-  17 1.99  71 2.01  70 2.01  95 2.02  26 2.02  98 2.02
 207  0.498  0.666  0.666-  27 1.97  18 1.98  96 2.02  71 2.02  72 2.04  99 2.04
 208  0.834  0.002  0.002- 100 1.99  73 1.99   1 2.01  19 2.01  75 2.02 106 2.02
 209  0.833  1.000  0.333- 101 2.00 107 2.01  73 2.01  74 2.01   2 2.01  20 2.02
 210  0.833  0.001  0.667- 108 1.97 102 2.00   3 2.01  74 2.02  21 2.03  75 2.03
 211  0.833  0.333  1.000-  76 2.00  78 2.01 100 2.01 103 2.01   4 2.01  22 2.02
 212  0.834  0.328  0.328-  76 1.97 101 1.97   5 2.00  23 2.01  77 2.05 104 2.05
 213  0.834  0.333  0.666- 105 1.99 102 2.01  78 2.02  24 2.03   6 2.03  77 2.03
 214  0.833  0.667  0.001-  81 1.97  79 2.00   7 2.01 103 2.02  25 2.03 106 2.03
 215  0.834  0.666  0.333-  80 1.99  79 2.01 107 2.02  26 2.03   8 2.03 104 2.03
 216  0.808  0.692  0.692-  81 1.82 108 1.82  27 1.82 189 2.58 135 2.58 162 2.58
 
  LATTYP: Found a simple cubic cell.
 ALAT       =    12.0789003372
  
  Lattice vectors:
  
 A1 = (  12.0789003372,   0.0000000000,   0.0000000000)
 A2 = (   0.0000000000,  12.0789003372,   0.0000000000)
 A3 = (   0.0000000000,   0.0000000000,  12.0789003372)


Analysis of symmetry for initial positions (statically):
=====================================================================
 Subroutine PRICEL returns:
 Original cell was already a primitive cell.
 

 Routine SETGRP: Setting up the symmetry group for a 
 simple cubic supercell.


 Subroutine GETGRP returns: Found  1 space group operations
 (whereof  1 operations were pure point group operations)
 out of a pool of 48 trial point group operations.


The static configuration has the point symmetry C_1 .


Analysis of symmetry for dynamics (positions and initial velocities):
=====================================================================
 Subroutine PRICEL returns:
 Original cell was already a primitive cell.
 

 Routine SETGRP: Setting up the symmetry group for a 
 simple cubic supercell.


 Subroutine GETGRP returns: Found  1 space group operations
 (whereof  1 operations were pure point group operations)
 out of a pool of 48 trial point group operations.


The dynamic configuration has the point symmetry C_1 .


Analysis of structural, dynamic, and magnetic symmetry:
=====================================================================
 Subroutine PRICEL returns:
 Original cell was already a primitive cell.
 

 Routine SETGRP: Setting up the symmetry group for a 
 simple cubic supercell.


 Subroutine GETGRP returns: Found  1 space group operations
 (whereof  1 operations were pure point group operations)
 out of a pool of 48 trial point group operations.


The overall configuration has the point symmetry C_1 .


 Subroutine INISYM returns: Found  1 space group operations
 (whereof  1 operations are pure point group operations),
 and found     1 'primitive' translations


----------------------------------------------------------------------------------------

                                     Primitive cell                                     

  volume of cell :    1762.3095

  direct lattice vectors                    reciprocal lattice vectors
    12.078900337  0.000000000  0.000000000     0.082788993  0.000000000  0.000000000
     0.000000000 12.078900337  0.000000000     0.000000000  0.082788993  0.000000000
     0.000000000  0.000000000 12.078900337     0.000000000  0.000000000  0.082788993

  length of vectors
    12.078900337 12.078900337 12.078900337     0.082788993  0.082788993  0.082788993

  position of ions in fractional coordinates (direct lattice)
     0.999802792  0.999937567  0.999940506
     0.000137083  0.999646212  0.333078454
     0.000150246  0.999703031  0.666591883
     0.000137176  0.333075701  0.999648281
     0.999013471  0.333828005  0.333831307
     0.001902256  0.332266720  0.666242832
     0.000149970  0.666589438  0.999706141
     0.001901595  0.666239635  0.332268823
     0.003950841  0.664636872  0.664639585
     0.333452755  0.999948664  0.999951768
     0.333433169  0.000199108  0.332790656
     0.333084760  0.000472547  0.666843727
     0.333432984  0.332787963  0.000194115
     0.332926199  0.333046676  0.333049320
     0.334314107  0.331670935  0.666932810
     0.333084858  0.666841306  0.000475712
     0.334314859  0.666929887  0.331673853
     0.334083486  0.667263888  0.667266410
     0.666745982  0.999627241  0.999629769
     0.666425813  0.999905322  0.332998126
     0.665110599  0.001710240  0.667145179
     0.666425379  0.332994747  0.999979667
     0.667175524  0.332796785  0.332805666
     0.665939628  0.332565534  0.666133563
     0.665110533  0.667141544  0.001713377
     0.665939739  0.666124544  0.332569021
     0.660900943  0.668269838  0.668272711
     0.999740465  0.166478736  0.166481691
     0.999181979  0.165246527  0.499669981
     0.000177600  0.166424933  0.833507031
     0.999180770  0.499668222  0.165248686
     0.978418659  0.489075192  0.489077059
     0.000778821  0.499169112  0.831494656
     0.000176729  0.833504875  0.166427115
     0.000777656  0.831491925  0.499172316
     0.998511636  0.833390370  0.833393022
     0.333436140  0.166441084  0.166440308
     0.333914958  0.165481014  0.499755464
     0.333680970  0.166164686  0.833666375
     0.333915882  0.499751768  0.165481664
     0.344097780  0.499442561  0.499445146
     0.334909261  0.499379595  0.836061712
     0.333681887  0.833665734  0.166169121
     0.334910669  0.836060691  0.499380949
     0.333195814  0.833807893  0.833810644
     0.666588495  0.166282288  0.166323441
     0.665904434  0.165766457  0.499385618
     0.666376496  0.166760693  0.833691080
     0.665904480  0.499408087  0.165786075
     0.666814994  0.498056109  0.498055797
     0.665211191  0.501356323  0.834878788
     0.666376542  0.833672075  0.166741903
     0.665211475  0.834859843  0.501381199
     0.669451149  0.830811735  0.830814409
     0.166603209  0.000055335  0.166205413
     0.166721394  0.000118438  0.499581704
     0.166505408  0.999856096  0.833755208
     0.166381700  0.332302164  0.165646571
     0.165631373  0.323202301  0.500780914
     0.167013884  0.331661292  0.834220258
     0.167255263  0.667772920  0.165035944
     0.172737201  0.678435784  0.498543824
     0.166646139  0.667382584  0.834324777
     0.500056273  0.000020886  0.166353973
     0.499956584  0.000458182  0.499902572
     0.500362536  0.999644705  0.833476575
     0.499922392  0.332804970  0.166494983
     0.500591450  0.331619320  0.499412926
     0.500089835  0.332858540  0.833735862
     0.499639972  0.666875477  0.166541862
     0.500756862  0.667650432  0.499514399
     0.498046803  0.667263416  0.835374847
     0.833364075  0.000204327  0.166657031
     0.833141337  0.999680856  0.499756829
     0.833142685  0.001774899  0.834990516
     0.833277071  0.331889810  0.165470138
     0.831917615  0.328803140  0.497917730
     0.833549503  0.333011586  0.833547264
     0.833362705  0.666873815  0.166786025
     0.826076592  0.670911632  0.497579516
     0.833099790  0.667961919  0.838313287
     0.166603088  0.166202474  0.000057946
     0.166379373  0.165645947  0.332304831
     0.167255359  0.165033448  0.667775383
     0.166721405  0.499578924  0.000120746
     0.165631067  0.500778362  0.323205023
     0.172737118  0.498540970  0.678438602
     0.166505437  0.833752531  0.999858934
     0.167016133  0.834219617  0.331664445
     0.166646124  0.834321794  0.667385788
     0.500057127  0.166351317  0.000021639
     0.499948382  0.166478021  0.332807035
     0.499639805  0.166538238  0.666878485
     0.499956584  0.499900176  0.000459941
     0.500592518  0.499411899  0.331621475
     0.500755448  0.499512889  0.667652319
     0.500361765  0.833474030  0.999648382
     0.500065128  0.833718585  0.332861384
     0.498046310  0.835372283  0.667265109
     0.833363268  0.166654626  0.000204932
     0.833254365  0.165451637  0.331891849
     0.833363009  0.166782801  0.666876657
     0.833141271  0.499754243  0.999682518
     0.831916543  0.497917378  0.328804700
     0.826077651  0.497578863  0.670913162
     0.833143397  0.834988196  0.001778125
     0.833571224  0.833528472  0.333014233
     0.833100507  0.838310655  0.667963794
     0.000429996  0.166691477  0.000142749
     0.000878224  0.166314321  0.333358588
     0.000675568  0.166595813  0.666142115
     0.000068808  0.499768403  0.999440082
     0.002437066  0.499625831  0.333575626
     0.018795968  0.490163697  0.668597181
     0.001095933  0.833190737  0.001031541
     0.000736755  0.833977664  0.332062936
     0.000833780  0.832628513  0.665816090
     0.333237036  0.166586804  0.000224565
     0.332631762  0.167189679  0.333378117
     0.333403879  0.166397856  0.666259272
     0.333735982  0.499453545  0.000720797
     0.330834024  0.499548386  0.335729520
     0.332671434  0.499345658  0.663769221
     0.332895650  0.833511537  0.000091095
     0.333484445  0.833379421  0.333001051
     0.332933498  0.833483928  0.666259734
     0.666347323  0.166887397  0.999986371
     0.666030400  0.166030901  0.332639153
     0.666257750  0.166899825  0.666762456
     0.666165096  0.498919601  0.001123852
     0.663593000  0.499726135  0.329424097
     0.664700425  0.499597460  0.666886278
     0.666112142  0.833839623  0.001222938
     0.666410195  0.833176269  0.333556032
     0.658111233  0.841288642  0.664576257
     0.000429857  0.000141176  0.166694096
     0.000068897  0.999438372  0.499771364
     0.001096094  0.001028659  0.833193215
     0.000883818  0.333355941  0.166318225
     0.002436391  0.333573500  0.499628307
     0.000730234  0.332060280  0.833981638
     0.000676144  0.666139519  0.166598194
     0.018797037  0.668594491  0.490166198
     0.000833962  0.665813484  0.832631233
     0.333237141  0.000225219  0.166589286
     0.333735942  0.000720617  0.499456631
     0.332895568  0.000087583  0.833514031
     0.332626523  0.333376031  0.167190456
     0.330834923  0.335727303  0.499550540
     0.333490348  0.332998098  0.833380728
     0.333403250  0.666256359  0.166400745
     0.332670842  0.663767109  0.499348272
     0.332933299  0.666257535  0.833486545
     0.666347394  0.999961136  0.166891170
     0.666165239  0.001104641  0.498922793
     0.666112156  0.001225515  0.833843958
     0.666029802  0.332632481  0.166068103
     0.663593159  0.329417606  0.499731051
     0.666410714  0.333553699  0.833205942
     0.666257671  0.666762086  0.166899946
     0.664700467  0.666880038  0.499604050
     0.658111060  0.664567864  0.841293120
     0.166783044  0.166982901  0.166984845
     0.166927299  0.164318627  0.499478247
     0.167169818  0.166371349  0.833499312
     0.166927289  0.499475363  0.164320996
     0.998547145  0.576695584  0.576697320
     0.169936149  0.499480560  0.837230856
     0.167169971  0.833496950  0.166374753
     0.169936273  0.837228265  0.499483110
     0.166602472  0.833141493  0.833144332
     0.499496388  0.166633200  0.166636944
     0.498607301  0.166640114  0.499514069
     0.499656106  0.166948175  0.833512982
     0.498605635  0.499511171  0.166642639
     0.501907194  0.499332293  0.499336531
     0.498260486  0.498835631  0.833438986
     0.499654860  0.833510357  0.166949584
     0.498258993  0.833436285  0.498839768
     0.498404126  0.833793048  0.833795832
     0.833494539  0.165857142  0.165861163
     0.833540585  0.165747555  0.499569149
     0.833426797  0.167186501  0.833394625
     0.833541908  0.499566141  0.165749992
     0.823647392  0.483844756  0.483848678
     0.833400227  0.499817529  0.833555063
     0.833428005  0.833392074  0.167187437
     0.833401781  0.833552508  0.499821542
     0.835513606  0.841334896  0.841337402
     0.166805807  0.000130009  0.000132796
     0.167036082  0.000137332  0.332499884
     0.166879229  0.000042584  0.666900852
     0.167036063  0.332497029  0.000138552
     0.166659182  0.335813031  0.335814778
     0.171074225  0.330462319  0.665127715
     0.166879203  0.666898160  0.000045472
     0.171074686  0.665125777  0.330464953
     0.169941869  0.665179013  0.665181763
     0.499652625  0.000200474  0.000202307
     0.499559254  0.000174959  0.333003484
     0.497632849  0.002192825  0.666509590
     0.499559758  0.333000852  0.000193009
     0.498735568  0.333165191  0.333171369
     0.499062007  0.333096021  0.666282303
     0.497632817  0.666506861  0.002194237
     0.499057483  0.666277034  0.333098641
     0.497846534  0.666432102  0.666435399
     0.833503012  0.002022366  0.002024021
     0.833438831  0.999834934  0.333074349
     0.833346984  0.001376991  0.666730376
     0.833438175  0.333071823  0.999854807
     0.833695225  0.328442817  0.328449550
     0.833669735  0.333434129  0.666288715
     0.833346952  0.666727647  0.001378113
     0.833673868  0.666283410  0.333436311
     0.808060338  0.691827238  0.691830587

  ion indices of the primitive-cell ions
   primitive index   ion index
                 1           1
                 2           2
                 3           3
                 4           4
                 5           5
                 6           6
                 7           7
                 8           8
                 9           9
                10          10
                11          11
                12          12
                13          13
                14          14
                15          15
                16          16
                17          17
                18          18
                19          19
                20          20
                21          21
                22          22
                23          23
                24          24
                25          25
                26          26
                27          27
                28          28
                29          29
                30          30
                31          31
                32          32
                33          33
                34          34
                35          35
                36          36
                37          37
                38          38
                39          39
                40          40
                41          41
                42          42
                43          43
                44          44
                45          45
                46          46
                47          47
                48          48
                49          49
                50          50
                51          51
                52          52
                53          53
                54          54
                55          55
                56          56
                57          57
                58          58
                59          59
                60          60
                61          61
                62          62
                63          63
                64          64
                65          65
                66          66
                67          67
                68          68
                69          69
                70          70
                71          71
                72          72
                73          73
                74          74
                75          75
                76          76
                77          77
                78          78
                79          79
                80          80
                81          81
                82          82
                83          83
                84          84
                85          85
                86          86
                87          87
                88          88
                89          89
                90          90
                91          91
                92          92
                93          93
                94          94
                95          95
                96          96
                97          97
                98          98
                99          99
               100         100
               101         101
               102         102
               103         103
               104         104
               105         105
               106         106
               107         107
               108         108
               109         109
               110         110
               111         111
               112         112
               113         113
               114         114
               115         115
               116         116
               117         117
               118         118
               119         119
               120         120
               121         121
               122         122
               123         123
               124         124
               125         125
               126         126
               127         127
               128         128
               129         129
               130         130
               131         131
               132         132
               133         133
               134         134
               135         135
               136         136
               137         137
               138         138
               139         139
               140         140
               141         141
               142         142
               143         143
               144         144
               145         145
               146         146
               147         147
               148         148
               149         149
               150         150
               151         151
               152         152
               153         153
               154         154
               155         155
               156         156
               157         157
               158         158
               159         159
               160         160
               161         161
               162         162
               163         163
               164         164
               165         165
               166         166
               167         167
               168         168
               169         169
               170         170
               171         171
               172         172
               173         173
               174         174
               175         175
               176         176
               177         177
               178         178
               179         179
               180         180
               181         181
               182         182
               183         183
               184         184
               185         185
               186         186
               187         187
               188         188
               189         189
               190         190
               191         191
               192         192
               193         193
               194         194
               195         195
               196         196
               197         197
               198         198
               199         199
               200         200
               201         201
               202         202
               203         203
               204         204
               205         205
               206         206
               207         207
               208         208
               209         209
               210         210
               211         211
               212         212
               213         213
               214         214
               215         215
               216         216

----------------------------------------------------------------------------------------

 
 
 KPOINTS: Gamma-point only                        

Automatic generation of k-mesh.
 Grid dimensions read from file:
 generate k-points for:    1    1    1

 Generating k-lattice:

  Cartesian coordinates                     Fractional coordinates (reciprocal lattice)
     0.082788993  0.000000000  0.000000000     1.000000000  0.000000000  0.000000000
     0.000000000  0.082788993  0.000000000     0.000000000  1.000000000  0.000000000
     0.000000000  0.000000000  0.082788993     0.000000000  0.000000000  1.000000000

  Length of vectors
     0.082788993  0.082788993  0.082788993

  Shift w.r.t. Gamma in fractional coordinates (k-lattice)
     0.000000000  0.000000000  0.000000000

 
 Subroutine IBZKPT returns following result:
 ===========================================
 
 Found      1 irreducible k-points:
 
 Following reciprocal coordinates:
            Coordinates               Weight
  0.000000  0.000000  0.000000      1.000000
 
 Following cartesian coordinates:
            Coordinates               Weight
  0.000000  0.000000  0.000000      1.000000
 


--------------------------------------------------------------------------------------------------------




 Dimension of arrays:
   k-points           NKPTS =      1   k-points in BZ     NKDIM =      1   number of bands    NBANDS=    757
   number of dos      NEDOS =    301   number of ions     NIONS =    216
   non local maximal  LDIM  =      4   non local SUM 2l+1 LMDIM =      8
   total plane-waves  NPLWV = 512000
   max r-space proj   IRMAX =      1   max aug-charges    IRDMAX=   3893
   dimension x,y,z NGX =    80 NGY =   80 NGZ =   80
   dimension x,y,z NGXF=   160 NGYF=  160 NGZF=  160
   support grid    NGXF=   160 NGYF=  160 NGZF=  160
   ions per type =             108 108
   NGX,Y,Z   is equivalent  to a cutoff of  11.01, 11.01, 11.01 a.u.
   NGXF,Y,Z  is equivalent  to a cutoff of  22.02, 22.02, 22.02 a.u.

 SYSTEM =  Si                                      
 POSCAR =  Li   F                                  

 Startparameter for this run:
   NWRITE =      2    write-flag & timer
   PREC   = accura    normal or accurate (medium, high low for compatibility)
   ISTART =      1    job   : 0-new  1-cont  2-samecut
   ICHARG =      2    charge: 1-file 2-atom 10-const
   ISPIN  =      2    spin polarized calculation?
   LNONCOLLINEAR =      F non collinear calculations
   LSORBIT =      F    spin-orbit coupling
   INIWAV =      1    electr: 0-lowe 1-rand  2-diag
   LASPH  =      F    aspherical Exc in radial PAW
 Electronic Relaxation 1
   ENCUT  =  400.0 eV  29.40 Ry    5.42 a.u.  19.70 19.70 19.70*2*pi/ulx,y,z
   ENINI  =  400.0     initial cutoff
   ENAUG  =  628.9 eV  augmentation charge cutoff
   NELM   =     20;   NELMIN=  2; NELMDL=  0     # of ELM steps 
   EDIFF  = 0.1E-09   stopping-criterion for ELM
   LREAL  =      F    real-space projection
   NLSPLINE    = F    spline interpolate recip. space projectors
   LCOMPAT=      F    compatible to vasp.4.4
   GGA_COMPAT  = T    GGA compatible to vasp.4.4-vasp.4.6
   LMAXPAW     = -100 max onsite density
   LMAXMIX     =    2 max onsite mixed and CHGCAR
   VOSKOWN=      0    Vosko Wilk Nusair interpolation
   ROPT   =    0.00000   0.00000
 Ionic relaxation
   EDIFFG = -.1E-01   stopping-criterion for IOM
   NSW    =    500    number of steps for IOM
   NBLOCK =      1;   KBLOCK =    500    inner block; outer block 
   IBRION =      3    ionic relax: 0-MD 1-quasi-New 2-CG
   NFREE  =      0    steps in history (QN), initial steepest desc. (CG)
   ISIF   =      0    stress and relaxation
   IWAVPR =     11    prediction:  0-non 1-charg 2-wave 3-comb
   ISYM   =      2    0-nonsym 1-usesym 2-fastsym
   LCORR  =      T    Harris-Foulkes like correction to forces

   POTIM  = 0.0000    time-step for ionic-motion
   TEIN   =    0.0    initial temperature
   TEBEG  =    0.0;   TEEND  =   0.0 temperature during run
   SMASS  =  -3.00    Nose mass-parameter (am)
   estimated Nose-frequenzy (Omega)   =  0.10E-29 period in steps = 0.00E+00 mass=  -0.333E-26a.u.
   SCALEE = 1.0000    scale energy and forces
   NPACO  =    256;   APACO  = 10.0  distance and # of slots for P.C.
   PSTRESS=    0.0 pullay stress

  Mass of Ions in am
   POMASS =  19.00  7.01
  Ionic Valenz
   ZVAL   =   7.00  3.00
  Atomic Wigner-Seitz radii
   RWIGS  =  -1.00 -1.00
  virtual crystal weights 
   VCA    =   1.00  1.00
   NELECT =    1080.0000    total number of electrons
   NUPDOWN=      -1.0000    fix difference up-down

 DOS related values:
   EMIN   =  10.00;   EMAX   =-10.00  energy-range for DOS
   EFERMI =   0.00;   METHOD = LEGACY      
   ISMEAR =     0;   SIGMA  =   0.01  broadening in eV -4-tet -1-fermi 0-gaus

 Electronic relaxation 2 (details)
   IALGO  =     38    algorithm
   LDIAG  =      T    sub-space diagonalisation (order eigenvalues)
   LSUBROT=      F    optimize rotation matrix (better conditioning)
   TURBO    =      0    0=normal 1=particle mesh
   IRESTART =      0    0=no restart 2=restart with 2 vectors
   NREBOOT  =      0    no. of reboots
   NMIN     =      0    reboot dimension
   EREF     =   0.00    reference energy to select bands
   IMIX   =      4    mixing-type and parameters
     AMIX     =   0.40;   BMIX     =  1.00
     AMIX_MAG =   1.60;   BMIX_MAG =  1.00
     AMIN     =   0.10
     WC   =   100.;   INIMIX=   1;  MIXPRE=   1;  MAXMIX= -45

 Intra band minimization:
   WEIMIN = 0.0010     energy-eigenvalue tresh-hold
   EBREAK =  0.33E-13  absolut break condition
   DEPER  =   0.30     relativ break condition  

   TIME   =   0.40     timestep for ELM

  volume/ion in A,a.u.               =       8.16        55.06
  Fermi-wavevector in a.u.,A,eV,Ry     =   1.390557  2.627771 26.308875  1.933648
  Thomas-Fermi vector in A             =   2.514480
 
 Write flags
   LWAVE        =      T    write WAVECAR
   LDOWNSAMPLE  =      F    k-point downsampling of WAVECAR
   LCHARG       =      T    write CHGCAR
   LVTOT        =      F    write LOCPOT, total local potential
   LVHAR        =      F    write LOCPOT, Hartree potential only
   LELF         =      F    write electronic localiz. function (ELF)
   LORBIT       =      0    0 simple, 1 ext, 2 COOP (PROOUT), +10 PAW based schemes


 Dipole corrections
   LMONO  =      F    monopole corrections only (constant potential shift)
   LDIPOL =      F    correct potential (dipole corrections)
   IDIPOL =      0    1-x, 2-y, 3-z, 4-all directions 
   EPSILON=  1.0000000 bulk dielectric constant

 Exchange correlation treatment:
   GGA     =    --    GGA type
   LEXCH   =     8    internal setting for exchange type
   LIBXC   =     F    Libxc                    
   VOSKOWN =     0    Vosko Wilk Nusair interpolation
   LHFCALC =     F    Hartree Fock is set to
   LHFONE  =     F    Hartree Fock one center treatment
   AEXX    =    0.0000 exact exchange contribution

 Linear response parameters
   LEPSILON=     F    determine dielectric tensor
   LRPA    =     F    only Hartree local field effects (RPA)
   LNABLA  =     F    use nabla operator in PAW spheres
   LVEL    =     F    velocity operator in full k-point grid
   CSHIFT  =0.1000    complex shift for real part using Kramers Kronig
   OMEGAMAX=  -1.0    maximum frequency
   DEG_THRESHOLD= 0.2000000E-02 threshold for treating states as degnerate
   RTIME   =   -0.100 relaxation time in fs
  (WPLASMAI=    0.000 imaginary part of plasma frequency in eV, 0.658/RTIME)
   DFIELD  = 0.0000000 0.0000000 0.0000000 field for delta impulse in time
 
  Optional k-point grid parameters
   LKPOINTS_OPT  =     F    use optional k-point grid
   KPOINTS_OPT_MODE=     1    mode for optional k-point grid
 
 Orbital magnetization related:
   ORBITALMAG=     F  switch on orbital magnetization
   LCHIMAG   =     F  perturbation theory with respect to B field
   DQ        =  0.001000  dq finite difference perturbation B field
   LLRAUG    =     F  two centre corrections for induced B field
   LBONE     =     F  B-component reconstruction in AE one-centre
   LVGVCALC  =     T  calculate vGv susceptibility
   LVGVAPPL  =     F  apply vGv susceptibility instead of pGv for G=0

 Random number generation:
   RANDOM_GENERATOR = DEFAULT
   PCG_SEED         = not used


--------------------------------------------------------------------------------------------------------


 quickmin algorithm: (dynamic with friction)
 charge density and potential will be updated during run
 spin polarized calculation
 Variant of blocked Davidson
 Davidson routine will perform the subspace rotation
 perform sub-space diagonalisation
    after iterative eigenvector-optimisation
 modified Broyden-mixing scheme, WC =      100.0
 initial mixing is a Kerker type mixing with AMIX =  0.4000 and BMIX =      1.0000
 Hartree-type preconditioning will be used
 using additional bands           217
 reciprocal scheme for non local part
 calculate Harris-corrections to forces 
   (improved forces if not selfconsistent)
 use gradient corrections 
 use of overlap-Matrix (Vanderbilt PP)
 Gauss-broadening in eV      SIGMA  =   0.01


--------------------------------------------------------------------------------------------------------


  energy-cutoff  :      400.00
  volume of cell :     1762.31
      direct lattice vectors                 reciprocal lattice vectors
    12.078900337  0.000000000  0.000000000     0.082788993  0.000000000  0.000000000
     0.000000000 12.078900337  0.000000000     0.000000000  0.082788993  0.000000000
     0.000000000  0.000000000 12.078900337     0.000000000  0.000000000  0.082788993

  length of vectors
    12.078900337 12.078900337 12.078900337     0.082788993  0.082788993  0.082788993


 
 old parameters found on file WAVECAR:
  energy-cutoff  :      400.00
  volume of cell :     1762.31
      direct lattice vectors                 reciprocal lattice vectors
    12.078900337  0.000000000  0.000000000     0.082788993  0.000000000  0.000000000
     0.000000000 12.078900337  0.000000000     0.000000000  0.082788993  0.000000000
     0.000000000  0.000000000 12.078900337     0.000000000  0.000000000  0.082788993

  length of vectors

 
 k-points in units of 2pi/SCALE and weight: Gamma-point only                        
   0.00000000  0.00000000  0.00000000       1.000
 
 k-points in reciprocal lattice and weights: Gamma-point only                        
   0.00000000  0.00000000  0.00000000       1.000
 
 position of ions in fractional coordinates (direct lattice) 
   0.99980279  0.99993757  0.99994051
   0.00013708  0.99964621  0.33307845
   0.00015025  0.99970303  0.66659188
   0.00013718  0.33307570  0.99964828
   0.99901347  0.33382801  0.33383131
   0.00190226  0.33226672  0.66624283
   0.00014997  0.66658944  0.99970614
   0.00190160  0.66623963  0.33226882
   0.00395084  0.66463687  0.66463958
   0.33345276  0.99994866  0.99995177
   0.33343317  0.00019911  0.33279066
   0.33308476  0.00047255  0.66684373
   0.33343298  0.33278796  0.00019411
   0.33292620  0.33304668  0.33304932
   0.33431411  0.33167094  0.66693281
   0.33308486  0.66684131  0.00047571
   0.33431486  0.66692989  0.33167385
   0.33408349  0.66726389  0.66726641
   0.66674598  0.99962724  0.99962977
   0.66642581  0.99990532  0.33299813
   0.66511060  0.00171024  0.66714518
   0.66642538  0.33299475  0.99997967
   0.66717552  0.33279679  0.33280567
   0.66593963  0.33256553  0.66613356
   0.66511053  0.66714154  0.00171338
   0.66593974  0.66612454  0.33256902
   0.66090094  0.66826984  0.66827271
   0.99974046  0.16647874  0.16648169
   0.99918198  0.16524653  0.49966998
   0.00017760  0.16642493  0.83350703
   0.99918077  0.49966822  0.16524869
   0.97841866  0.48907519  0.48907706
   0.00077882  0.49916911  0.83149466
   0.00017673  0.83350487  0.16642711
   0.00077766  0.83149193  0.49917232
   0.99851164  0.83339037  0.83339302
   0.33343614  0.16644108  0.16644031
   0.33391496  0.16548101  0.49975546
   0.33368097  0.16616469  0.83366638
   0.33391588  0.49975177  0.16548166
   0.34409778  0.49944256  0.49944515
   0.33490926  0.49937959  0.83606171
   0.33368189  0.83366573  0.16616912
   0.33491067  0.83606069  0.49938095
   0.33319581  0.83380789  0.83381064
   0.66658850  0.16628229  0.16632344
   0.66590443  0.16576646  0.49938562
   0.66637650  0.16676069  0.83369108
   0.66590448  0.49940809  0.16578608
   0.66681499  0.49805611  0.49805580
   0.66521119  0.50135632  0.83487879
   0.66637654  0.83367207  0.16674190
   0.66521147  0.83485984  0.50138120
   0.66945115  0.83081174  0.83081441
   0.16660321  0.00005533  0.16620541
   0.16672139  0.00011844  0.49958170
   0.16650541  0.99985610  0.83375521
   0.16638170  0.33230216  0.16564657
   0.16563137  0.32320230  0.50078091
   0.16701388  0.33166129  0.83422026
   0.16725526  0.66777292  0.16503594
   0.17273720  0.67843578  0.49854382
   0.16664614  0.66738258  0.83432478
   0.50005627  0.00002089  0.16635397
   0.49995658  0.00045818  0.49990257
   0.50036254  0.99964470  0.83347658
   0.49992239  0.33280497  0.16649498
   0.50059145  0.33161932  0.49941293
   0.50008983  0.33285854  0.83373586
   0.49963997  0.66687548  0.16654186
   0.50075686  0.66765043  0.49951440
   0.49804680  0.66726342  0.83537485
   0.83336408  0.00020433  0.16665703
   0.83314134  0.99968086  0.49975683
   0.83314269  0.00177490  0.83499052
   0.83327707  0.33188981  0.16547014
   0.83191762  0.32880314  0.49791773
   0.83354950  0.33301159  0.83354726
   0.83336271  0.66687382  0.16678602
   0.82607659  0.67091163  0.49757952
   0.83309979  0.66796192  0.83831329
   0.16660309  0.16620247  0.00005795
   0.16637937  0.16564595  0.33230483
   0.16725536  0.16503345  0.66777538
   0.16672140  0.49957892  0.00012075
   0.16563107  0.50077836  0.32320502
   0.17273712  0.49854097  0.67843860
   0.16650544  0.83375253  0.99985893
   0.16701613  0.83421962  0.33166445
   0.16664612  0.83432179  0.66738579
   0.50005713  0.16635132  0.00002164
   0.49994838  0.16647802  0.33280704
   0.49963980  0.16653824  0.66687849
   0.49995658  0.49990018  0.00045994
   0.50059252  0.49941190  0.33162148
   0.50075545  0.49951289  0.66765232
   0.50036177  0.83347403  0.99964838
   0.50006513  0.83371859  0.33286138
   0.49804631  0.83537228  0.66726511
   0.83336327  0.16665463  0.00020493
   0.83325437  0.16545164  0.33189185
   0.83336301  0.16678280  0.66687666
   0.83314127  0.49975424  0.99968252
   0.83191654  0.49791738  0.32880470
   0.82607765  0.49757886  0.67091316
   0.83314340  0.83498820  0.00177812
   0.83357122  0.83352847  0.33301423
   0.83310051  0.83831065  0.66796379
   0.00043000  0.16669148  0.00014275
   0.00087822  0.16631432  0.33335859
   0.00067557  0.16659581  0.66614211
   0.00006881  0.49976840  0.99944008
   0.00243707  0.49962583  0.33357563
   0.01879597  0.49016370  0.66859718
   0.00109593  0.83319074  0.00103154
   0.00073676  0.83397766  0.33206294
   0.00083378  0.83262851  0.66581609
   0.33323704  0.16658680  0.00022457
   0.33263176  0.16718968  0.33337812
   0.33340388  0.16639786  0.66625927
   0.33373598  0.49945354  0.00072080
   0.33083402  0.49954839  0.33572952
   0.33267143  0.49934566  0.66376922
   0.33289565  0.83351154  0.00009109
   0.33348445  0.83337942  0.33300105
   0.33293350  0.83348393  0.66625973
   0.66634732  0.16688740  0.99998637
   0.66603040  0.16603090  0.33263915
   0.66625775  0.16689983  0.66676246
   0.66616510  0.49891960  0.00112385
   0.66359300  0.49972613  0.32942410
   0.66470042  0.49959746  0.66688628
   0.66611214  0.83383962  0.00122294
   0.66641020  0.83317627  0.33355603
   0.65811123  0.84128864  0.66457626
   0.00042986  0.00014118  0.16669410
   0.00006890  0.99943837  0.49977136
   0.00109609  0.00102866  0.83319322
   0.00088382  0.33335594  0.16631823
   0.00243639  0.33357350  0.49962831
   0.00073023  0.33206028  0.83398164
   0.00067614  0.66613952  0.16659819
   0.01879704  0.66859449  0.49016620
   0.00083396  0.66581348  0.83263123
   0.33323714  0.00022522  0.16658929
   0.33373594  0.00072062  0.49945663
   0.33289557  0.00008758  0.83351403
   0.33262652  0.33337603  0.16719046
   0.33083492  0.33572730  0.49955054
   0.33349035  0.33299810  0.83338073
   0.33340325  0.66625636  0.16640075
   0.33267084  0.66376711  0.49934827
   0.33293330  0.66625753  0.83348654
   0.66634739  0.99996114  0.16689117
   0.66616524  0.00110464  0.49892279
   0.66611216  0.00122552  0.83384396
   0.66602980  0.33263248  0.16606810
   0.66359316  0.32941761  0.49973105
   0.66641071  0.33355370  0.83320594
   0.66625767  0.66676209  0.16689995
   0.66470047  0.66688004  0.49960405
   0.65811106  0.66456786  0.84129312
   0.16678304  0.16698290  0.16698484
   0.16692730  0.16431863  0.49947825
   0.16716982  0.16637135  0.83349931
   0.16692729  0.49947536  0.16432100
   0.99854714  0.57669558  0.57669732
   0.16993615  0.49948056  0.83723086
   0.16716997  0.83349695  0.16637475
   0.16993627  0.83722827  0.49948311
   0.16660247  0.83314149  0.83314433
   0.49949639  0.16663320  0.16663694
   0.49860730  0.16664011  0.49951407
   0.49965611  0.16694818  0.83351298
   0.49860564  0.49951117  0.16664264
   0.50190719  0.49933229  0.49933653
   0.49826049  0.49883563  0.83343899
   0.49965486  0.83351036  0.16694958
   0.49825899  0.83343628  0.49883977
   0.49840413  0.83379305  0.83379583
   0.83349454  0.16585714  0.16586116
   0.83354059  0.16574755  0.49956915
   0.83342680  0.16718650  0.83339462
   0.83354191  0.49956614  0.16574999
   0.82364739  0.48384476  0.48384868
   0.83340023  0.49981753  0.83355506
   0.83342801  0.83339207  0.16718744
   0.83340178  0.83355251  0.49982154
   0.83551361  0.84133490  0.84133740
   0.16680581  0.00013001  0.00013280
   0.16703608  0.00013733  0.33249988
   0.16687923  0.00004258  0.66690085
   0.16703606  0.33249703  0.00013855
   0.16665918  0.33581303  0.33581478
   0.17107422  0.33046232  0.66512771
   0.16687920  0.66689816  0.00004547
   0.17107469  0.66512578  0.33046495
   0.16994187  0.66517901  0.66518176
   0.49965262  0.00020047  0.00020231
   0.49955925  0.00017496  0.33300348
   0.49763285  0.00219283  0.66650959
   0.49955976  0.33300085  0.00019301
   0.49873557  0.33316519  0.33317137
   0.49906201  0.33309602  0.66628230
   0.49763282  0.66650686  0.00219424
   0.49905748  0.66627703  0.33309864
   0.49784653  0.66643210  0.66643540
   0.83350301  0.00202237  0.00202402
   0.83343883  0.99983493  0.33307435
   0.83334698  0.00137699  0.66673038
   0.83343817  0.33307182  0.99985481
   0.83369522  0.32844282  0.32844955
   0.83366973  0.33343413  0.66628872
   0.83334695  0.66672765  0.00137811
   0.83367387  0.66628341  0.33343631
   0.80806034  0.69182724  0.69183059
 
 position of ions in cartesian coordinates  (Angst):
  12.07651828 12.07814621 12.07818171
   0.00165582 12.07462697  4.02322145
   0.00181481 12.07531327  8.05169692
   0.00165694  4.02318820 12.07465196
  12.06698415  4.03227520  4.03231508
   0.02297716  4.01341659  8.04748077
   0.00181147  8.05166738 12.07535085
   0.02296918  8.04744215  4.01344199
   0.04772181  8.02808254  8.02811530
   4.02774260 12.07828025 12.07831774
   4.02750601  0.00240500  4.01974517
   4.02329762  0.00570784  8.05473892
   4.02750379  4.01971264  0.00234469
   4.02138238  4.02283761  4.02286955
   4.03814678  4.00622017  8.05581494
   4.02329881  8.05470967  0.00574608
   4.03815586  8.05577964  4.00625541
   4.03536113  8.05981400  8.05984447
   8.05355826 12.07439781 12.07442836
   8.04969097 12.07775673  4.02225117
   8.03380464  0.02065782  8.05838013
   8.04968573  4.02221036 12.07865473
   8.05874666  4.01981920  4.01992648
   8.04381839  4.01702594  8.04616092
   8.03380385  8.05833623  0.02069570
   8.04381974  8.04605198  4.01706806
   7.98295663  8.07196477  8.07199948
  12.07576544  2.01088006  2.01091576
  12.06901954  1.99599633  6.03546390
   0.00214521  2.01023018 10.06784836
  12.06900494  6.03544266  1.99602241
  11.81822147  5.90749050  5.90751306
   0.00940730  6.02941396 10.04354108
   0.00213470 10.06782231  2.01025653
   0.00939323 10.04350810  6.02945265
  12.06092253 10.06643922 10.06647126
   4.02754190  2.01042526  2.01041589
   4.03332550  1.99882868  6.03649644
   4.03049918  2.00708669 10.06977306
   4.03333666  6.03645180  1.99883653
   4.15632279  6.03271692  6.03274815
   4.04533559  6.03195636 10.09870609
   4.03051026 10.06976532  2.00714026
   4.04535259 10.09869377  6.03197272
   4.02463902 10.07148244 10.07151567
   8.05165600  2.00850719  2.00900427
   8.04339329  2.00227652  6.03202911
   8.04909529  2.01428579 10.07007147
   8.04339385  6.03230052  2.00251348
   8.05439186  6.01597010  6.01596634
   8.03501968  6.05583306 10.08441767
   8.04909584 10.06984191  2.01405883
   8.03502311 10.08418884  6.05613353
   8.08623371 10.03529215 10.03532444
   2.01238356  0.00066839  2.00757863
   2.01381111  0.00143060  6.03439762
   2.01120223 12.07716214 10.07084606
   2.00970797  4.01384473  2.00082842
   2.00064484  3.90392838  6.04888275
   2.01734406  4.00610369 10.07646336
   2.02025965  8.06596255  1.99345272
   2.08647543  8.19475822  6.02186117
   2.01290210  8.06124771 10.07772583
   6.04012988  0.00025227  2.00937306
   6.03892575  0.00553433  6.03827335
   6.04382921 12.07460876 10.06748049
   6.03851275  4.01991807  2.01107631
   6.04659423  4.00559672  6.03235897
   6.04053527  4.02056513 10.07061238
   6.03510142  8.05512243  2.01164255
   6.04859223  8.06448303  6.03358464
   6.01585769  8.05980830 10.09040952
  10.06612161  0.00246804  2.01303367
  10.06343118 12.07504543  6.03651293
  10.06344746  0.02143882 10.08576722
  10.06507069  4.00886393  1.99869731
  10.04864997  3.97158036  6.01429863
  10.06836137  4.02241376 10.06833433
  10.06610506  8.05510235  2.01459177
   9.97809683  8.10387474  6.01021338
  10.06292934  8.06824544 10.12590265
   2.01238210  2.00754311  0.00069993
   2.00967987  2.00082089  4.01387694
   2.02026081  1.99342257  8.06599230
   2.01381123  6.03436403  0.00145848
   2.00064115  6.04885192  3.90396126
   2.08647443  6.02182669  8.19479226
   2.01120258 10.07081373 12.07719642
   2.01737123 10.07645561  4.00614178
   2.01290192 10.07768980  8.06128642
   6.04014020  2.00934098  0.00026138
   6.03882668  2.01087143  4.01994301
   6.03509941  2.01159878  8.05515876
   6.03892575  6.03824441  0.00555558
   6.04660714  6.03234655  4.00562275
   6.04857515  6.03356640  8.06450582
   6.04381989 10.06744974 12.07465318
   6.04023685 10.07040370  4.02059949
   6.01585174 10.09037855  8.05982874
  10.06611186  2.01300462  0.00247535
  10.06479643  1.99847384  4.00888856
  10.06610873  2.01455283  8.05513668
  10.06343038  6.03648170 12.07506550
  10.04863701  6.01429439  3.97159920
   9.97810962  6.01020549  8.10389322
  10.06345606 10.08573921  0.02147779
  10.06862374 10.06810734  4.02244573
  10.06293799 10.12587085  8.06826809
   0.00519388  2.01344973  0.00172425
   0.01060798  2.00889411  4.02660516
   0.00816012  2.01229423  8.04626422
   0.00083112  6.03665274 12.07213715
   0.02943707  6.03493062  4.02922675
   0.22703462  5.92063844  8.07591871
   0.01323766 10.06402788  0.01245989
   0.00889919 10.07353308  4.01095511
   0.01007115 10.05723682  8.04232620
   4.02513694  2.01218540  0.00271250
   4.01782590  2.01946747  4.02684106
   4.02715223  2.00990312  8.04767934
   4.03116366  6.03284959  0.00870644
   3.99611120  6.03399517  4.05524341
   4.01830510  6.03154644  8.01760227
   4.02101338 10.06790279  0.00110032
   4.02812538 10.06630697  4.02228650
   4.02147054 10.06756930  8.04768492
   8.04874290  2.01581624 12.07873571
   8.04491483  2.00547070  4.01791518
   8.04766097  2.01596635  8.05375725
   8.04654180  6.02640013  0.01357489
   8.01547371  6.03614218  3.97908084
   8.02885019  6.03458793  8.05525289
   8.04590217 10.07186571  0.01477175
   8.04950233 10.06385312  4.02899007
   7.94926000 10.16184166  8.02735037
   0.00519220  0.00170525  2.01348137
   0.00083219 12.07211649  6.03668850
   0.01323961  0.01242507 10.06405781
   0.01067555  4.02657319  2.00894126
   0.02942892  4.02920106  6.03496052
   0.00882042  4.01092303 10.07358109
   0.00816708  8.04623286  2.01232298
   0.22704753  8.07588622  5.92066866
   0.01007334  8.04229472 10.05726968
   4.02513821  0.00272039  2.01221539
   4.03116318  0.00870426  6.03288686
   4.02101239  0.00105791 10.06793291
   4.01776263  4.02681585  2.01947685
   3.99612206  4.05521664  6.03402119
   4.02819667  4.02225083 10.06632275
   4.02714463  8.04764415  2.00993802
   4.01829794  8.01757675  6.03157801
   4.02146814  8.04765836 10.06760090
   8.04874376 12.07843091  2.01586181
   8.04654353  0.01334285  6.02643869
   8.04590235  0.01480288 10.07191806
   8.04490760  4.01783458  2.00592007
   8.01547563  3.97900243  6.03620157
   8.04950860  4.02896189 10.06421153
   8.04766000  8.05375278  2.01596781
   8.02885070  8.05517752  6.03466753
   7.94925791  8.02724899 10.16189575
   2.01455577  2.01696982  2.01699330
   2.01629821  1.98478831  6.03314797
   2.01922757  2.00958295 10.06775512
   2.01629808  6.03311314  1.98481694
  12.06135145  6.96584848  6.96586945
   2.05264181  6.03317591 10.11282806
   2.01922942 10.06772659  2.00962407
   2.05264330 10.11279677  6.03320671
   2.01237466 10.06343306 10.06346735
   6.03336709  2.01274582  2.01279104
   6.02262789  2.01282932  6.03358066
   6.03529631  2.01655037 10.06792024
   6.02260778  6.03354566  2.01285982
   6.06248698  6.03138500  6.03143619
   6.01843875  6.02538587 10.06702644
   6.03528126 10.06788853  2.01656739
   6.01842072 10.06699382  6.02543584
   6.02017376 10.07130313 10.07133675
  10.06769747  2.00337188  2.00342045
  10.06825365  2.00204820  6.03424596
  10.06687922  2.01942908 10.06649062
  10.06826964  6.03420963  2.00207763
   9.94875476  5.84431259  5.84435996
  10.06655828  6.03724612 10.06842853
  10.06689381 10.06645981  2.01944039
  10.06657706 10.06839767  6.03729459
  10.09208558 10.16240036 10.16243062
   2.01483072  0.00157036  0.00160403
   2.01761219  0.00165882  4.01623296
   2.01571757  0.00051437  8.05542893
   2.01761196  4.01619847  0.00167355
   2.01305965  4.05625214  4.05627323
   2.06638851  3.99162142  8.03401138
   2.01571726  8.05539641  0.00054925
   2.06639408  8.03398797  3.99165323
   2.05271090  8.03463101  8.03466422
   6.03525426  0.00242151  0.00244365
   6.03412644  0.00211332  4.02231589
   6.01085759  0.02648692  8.05070292
   6.03413252  4.02228410  0.00233134
   6.02417723  4.02426914  4.02434377
   6.02812024  4.02343364  8.04795754
   6.01085720  8.05066995  0.02650397
   6.02806560  8.04789389  4.02346528
   6.01343866  8.04976694  8.04980676
  10.06779982  0.02442796  0.02444795
  10.06702457 12.07690652  4.02317187
  10.06591516  0.01663254  8.05336977
  10.06701665  4.02314135 12.07714657
  10.07012153  3.96722806  3.96730938
  10.06981364  4.02751761  8.04803499
  10.06591478  8.05333680  0.01664608
  10.06986356  8.04797091  4.02754397
   9.76048029  8.35651226  8.35655271
 


--------------------------------------------------------------------------------------------------------


 k-point   1 :   0.0000 0.0000 0.0000  plane waves:   31919

 maximum and minimum number of plane-waves per node :     31919    31919

 maximum number of plane-waves:     31919
 maximum index in each direction: 
   IXMAX=   19   IYMAX=   19   IZMAX=   19
   IXMIN=  -19   IYMIN=  -19   IZMIN=  -19


 serial   3D FFT for wavefunctions
 parallel 3D FFT for charge:
    minimum data exchange during FFTs selected (reduces bandwidth)


 total amount of memory used by VASP MPI-rank0  1466161. kBytes
=======================================================================

   base      :      30000. kBytes
   nonl-proj :     114397. kBytes
   fftplans  :     141100. kBytes
   grid      :     372121. kBytes
   one-center:       1327. kBytes
   wavefun   :     807216. kBytes
 
     INWAV:  cpu time      0.4043: real time      1.1158
 Broyden mixing: mesh for mixing (old mesh)
   NGX = 39   NGY = 39   NGZ = 39
  (NGX  =160   NGY  =160   NGZ  =160)
  gives a total of  59319 points

 initial charge density was supplied:
 charge density of overlapping atoms calculated
 number of electron    1080.0000000 magnetization     216.0000000
 keeping initial charge density in first step


--------------------------------------------------------------------------------------------------------


 Maximum index for augmentation-charges          3645 (set IRDMAX)


--------------------------------------------------------------------------------------------------------


 First call to EWALD:  gamma=   0.147
 Maximum number of real-space cells 3x 3x 3
 Maximum number of reciprocal cells 3x 3x 3

    FEWALD:  cpu time      0.2530: real time      0.2537


--------------------------------------- Ionic step        1  -------------------------------------------




--------------------------------------- Iteration      1(   1)  ---------------------------------------


    POTLOK:  cpu time      0.1298: real time      0.1485
    SETDIJ:  cpu time      0.7050: real time      0.7071
     EDDAV:  cpu time      9.3485: real time      9.3799
       DOS:  cpu time      0.0003: real time      0.0003
    CHARGE:  cpu time      0.4715: real time      0.4732
    MIXING:  cpu time      0.0632: real time      0.0634
    --------------------------------------------
      LOOP:  cpu time     10.7182: real time     10.7724

 eigenvalue-minimisations  :  3028
 total energy-change (2. order) :-0.9057932E+03  (-0.6812286E+03)
 number of electron    1079.9999914 magnetization     142.4005295
 augmentation part      259.3531420 magnetization     143.9945758

 Broyden mixing:
  rms(total) = 0.13400E+02    rms(broyden)= 0.13387E+02
  rms(prec ) = 0.13719E+02
  weight for this iteration     100.00

 Free energy of the ion-electron system (eV)
  ---------------------------------------------------
  alpha Z        PSCENC =      2167.32059008
  Ewald energy   TEWEN  =    -60020.71789291
  -Hartree energ DENC   =    -23109.17659941
  -exchange      EXHF   =         0.00000000
  -V(xc)+E(xc)   XCENC  =      5435.89515239
  PAW double counting   =     53780.49107149   -55988.61141440
  entropy T*S    EENTRO =        -0.00000000
  eigenvalues    EBANDS =    -16265.85191537
  atomic energy  EATOM  =     93094.85783989
  Solvation  Ediel_sol  =         0.00000000
  ---------------------------------------------------
  free energy    TOTEN  =      -905.79316823 eV

  energy without entropy =     -905.79316823  energy(sigma->0) =     -905.79316823


--------------------------------------------------------------------------------------------------------




--------------------------------------- Iteration      1(   2)  ---------------------------------------


    POTLOK:  cpu time      0.0992: real time      0.1001
    SETDIJ:  cpu time      0.7037: real time      0.7055
     EDDAV:  cpu time      9.6059: real time      9.6351
       DOS:  cpu time      0.0003: real time      0.0003
    CHARGE:  cpu time      0.4425: real time      0.4441
    MIXING:  cpu time      0.0646: real time      0.0648
    --------------------------------------------
      LOOP:  cpu time     10.9161: real time     10.9498

 eigenvalue-minimisations  :  3244
 total energy-change (2. order) : 0.4325167E+03  (-0.1033898E+03)
 number of electron    1079.9999913 magnetization     104.5184452
 augmentation part      258.5084522 magnetization      90.3319813

 Broyden mixing:
  rms(total) = 0.65452E+01    rms(broyden)= 0.65415E+01
  rms(prec ) = 0.68309E+01
  weight for this iteration     100.00

 eigenvalues of (default mixing * dielectric matrix)
  average eigenvalue GAMMA=   0.7376
  0.7376

 Free energy of the ion-electron system (eV)
  ---------------------------------------------------
  alpha Z        PSCENC =      2167.32059008
  Ewald energy   TEWEN  =    -60020.71789291
  -Hartree energ DENC   =    -24254.92233653
[...]
      4.02830      2.01844      8.04091         0.000020     -0.000453      0.000076
      4.04116      6.03714      0.00526         0.000730     -0.000202      0.000087
      3.95857      6.02801      4.08782         0.000516      0.000753      0.001166
      3.91807      6.03828      7.98147         0.004882     -0.000502      0.001244
      4.03266     10.06551      0.00198        -0.000849     -0.000053     -0.000415
      4.01735     10.05565      4.03142         0.000725      0.000315     -0.000235
      4.02412     10.06349      8.05004        -0.002608     -0.003185     -0.000557
      8.04122      2.01192     12.07709         0.000947     -0.000212      0.000304
      8.03876      2.01064      4.02264         0.000224     -0.001175     -0.000869
      8.03981      2.01111      8.04768         0.000115     -0.000916      0.001060
      8.03836      6.03669      0.00189         0.000907     -0.000822      0.000353
      8.03139      6.02990      4.00180        -0.004402      0.000715     -0.006388
      8.02406      6.03822      8.04621        -0.005573     -0.001775      0.001545
      8.04141     10.06593      0.00153        -0.000201      0.001037      0.000961
      8.04847     10.06015      4.02628         0.000202      0.001390     -0.001031
      8.03429     10.07770      8.05366        -0.006431      0.007002     -0.000413
      0.00196      0.02232      1.98995         0.001389     -0.001598      0.001856
      0.00088     12.12772      6.02668         0.002213     -0.004483      0.000513
      0.00383      0.00785     10.08595         0.001662     -0.000217     -0.002091
      0.01203      4.00540      2.01050         0.001726      0.003081      0.000660
      0.07741      3.98570      5.99133         0.005638      0.009115      0.005313
      0.00480      3.90701     10.17746         0.001303      0.008910     -0.008066
      0.01323      8.05206      1.97514         0.002055     -0.000727      0.003509
      0.12600      8.47331      5.63235         0.061069     -0.035433      0.025169
      0.01976      8.08723     10.13696         0.006090     -0.003504     -0.004034
      4.03101      0.00038      2.01421        -0.000981     -0.000240     -0.000183
      4.04116      0.00521      6.03719         0.000730      0.000087     -0.000203
      4.03266      0.00193     10.06556        -0.000849     -0.000413     -0.000053
      4.02278      4.03131      2.02238        -0.000651     -0.000260     -0.000227
      3.95857      4.08777      6.02806         0.000516      0.001166      0.000754
      4.01735      4.03137     10.05570         0.000725     -0.000234      0.000316
      4.02829      8.04087      2.01849         0.000021      0.000075     -0.000454
      3.91807      7.98141      6.03834         0.004882      0.001242     -0.000502
      4.02412      8.04999     10.06354        -0.002608     -0.000555     -0.003185
      8.04122     12.07704      2.01197         0.000947      0.000306     -0.000212
      8.03836      0.00183      6.03674         0.000907      0.000355     -0.000822
      8.04141      0.00148     10.06598        -0.000201      0.000960      0.001036
      8.03876      4.02258      2.01069         0.000224     -0.000868     -0.001177
      8.03139      4.00174      6.02994        -0.004401     -0.006388      0.000716
      8.04847      4.02623     10.06019         0.000203     -0.001032      0.001390
      8.03981      8.04764      2.01116         0.000115      0.001060     -0.000916
      8.02407      8.04617      6.03827        -0.005572      0.001544     -0.001774
      8.03429      8.05361     10.07775        -0.006430     -0.000412      0.007002
      2.02489      2.01948      2.01953        -0.000710     -0.000046     -0.000045
      2.03379      1.99423      6.02592        -0.000071      0.000455      0.001046
      2.02861      2.00817     10.06454        -0.000441      0.000588     -0.000571
      2.03379      6.02587      1.99428        -0.000071      0.001046      0.000455
     11.68668      7.01531      7.01535        -0.326284      0.017668      0.017672
      2.05403      6.05091     10.12897         0.008912     -0.001179      0.000135
      2.02861     10.06449      2.00822        -0.000441     -0.000572      0.000586
      2.05404     10.12892      6.05096         0.008913      0.000133     -0.001179
      2.02367     10.07605     10.07610         0.000963     -0.004530     -0.004533
      6.03290      2.01367      2.01372        -0.000284     -0.000256     -0.000257
      6.02535      2.02106      6.03542        -0.000773     -0.001347     -0.000300
      6.03435      2.01859     10.06103        -0.000132     -0.000404      0.000854
      6.02535      6.03537      2.02111        -0.000773     -0.000300     -0.001349
      6.02248      6.03844      6.03849         0.000709     -0.001209     -0.001209
      6.02094      6.03721     10.04683        -0.000282     -0.000691      0.002299
      6.03435     10.06098      2.01864        -0.000132      0.000855     -0.000404
      6.02094     10.04678      6.03726        -0.000282      0.002300     -0.000692
      6.03394     10.06367     10.06373        -0.001583      0.000737      0.000737
     10.05467      2.00839      2.00844         0.002290     -0.001100     -0.001101
     10.05635      2.00474      6.02646         0.002398     -0.001672      0.000480
     10.05220      1.99960     10.06880         0.001953      0.000496      0.000576
     10.05635      6.02641      2.00479         0.002398      0.000479     -0.001672
     10.01678      5.90073      5.90078        -0.025729     -0.035431     -0.035433
     10.06251      6.04432     10.11851         0.004908     -0.003760      0.000430
     10.05221     10.06876      1.99964         0.001953      0.000576      0.000498
     10.06251     10.11846      6.04437         0.004907      0.000429     -0.003758
     10.06281     10.09039     10.09044         0.001633      0.005983      0.005984
      2.02530      0.00312      0.00317        -0.000816     -0.000873     -0.000873
      2.02821      0.01275      4.01412        -0.000090     -0.000722     -0.000141
      2.03132      0.01265      8.06297         0.000598     -0.001385     -0.000709
      2.02821      4.01407      0.01280        -0.000090     -0.000140     -0.000720
      2.01647      4.08083      4.08088         0.001395      0.001364      0.001364
      2.04087      4.02118      7.96908         0.009449      0.003803      0.001610
      2.03132      8.06292      0.01270         0.000598     -0.000708     -0.001387
      2.04087      7.96903      4.02123         0.009450      0.001612      0.003801
      2.00813      8.04554      8.04559        -0.008883     -0.029339     -0.029339
      6.03635     -0.00043     -0.00037        -0.000652      0.000607      0.000607
      6.03352     -0.00541      4.02652         0.000125      0.000497     -0.000810
      6.03409      0.00093      8.04959        -0.001816      0.000670      0.000508
      6.03353      4.02647     -0.00536         0.000125     -0.000810      0.000496
      6.02213      4.03225      4.03230        -0.000914     -0.000724     -0.000724
      6.01714      4.04136      8.03959        -0.000174     -0.001942      0.000929
      6.03409      8.04954      0.00098        -0.001816      0.000508      0.000669
      6.01714      8.03955      4.04141        -0.000174      0.000928     -0.001942
      6.00597      8.03762      8.03766        -0.002442      0.001108      0.001108
     10.05360      0.00261      0.00266         0.001716      0.000998      0.000999
     10.05113     12.09201      4.01804         0.002272     -0.000711     -0.000290
     10.05358      0.01280      8.05674         0.001573      0.001269     -0.000294
     10.05113      4.01799     12.09206         0.002272     -0.000291     -0.000711
     10.07159      3.99809      3.99814         0.001147     -0.006962     -0.006963
     10.06950      3.96911      8.03178         0.003693     -0.001393      0.004591
     10.05358      8.05669      0.01285         0.001573     -0.000294      0.001269
     10.06950      8.03174      3.96915         0.003692      0.004590     -0.001391
     10.01658      8.15347      8.15353        -0.038746      0.035822      0.035822
 -----------------------------------------------------------------------------------
    total drift:                                0.015902     -0.001253     -0.001302


--------------------------------------------------------------------------------------------------------



  FREE ENERGIE OF THE ION-ELECTRON SYSTEM (eV)
  ---------------------------------------------------
  free  energy   TOTEN  =     -1053.91495874 eV

  energy  without entropy=    -1053.91495874  energy(sigma->0) =    -1053.91495874
 
 d Force = 0.7027244E-02[ 0.663E-02, 0.743E-02]  d Energy = 0.7023381E-02 0.386E-05
 d Force = 0.5216027E+00[ 0.503E+00, 0.540E+00]  d Ewald  = 0.5215721E+00 0.306E-04


--------------------------------------------------------------------------------------------------------


    POTLOK:  cpu time      0.8416: real time      0.8439


--------------------------------------------------------------------------------------------------------


 NEB: the previous image is higher in energy:  F
 NEB: the next image is higher in energy    :  F
 NEB: image is at an extrema
 NEB: diff energy (min, max):     0.135895    0.258997

 NEB: Tangent
 ----------------------------------------------
     -0.00079     -0.00154     -0.00154
     -0.00102     -0.00509      0.00582
     -0.00095     -0.00364     -0.00392
     -0.00102      0.00582     -0.00509
     -0.00246      0.01837      0.01837
      0.00205      0.02787     -0.00415
     -0.00095     -0.00392     -0.00364
      0.00205     -0.00415      0.02786
      0.01772     -0.04138     -0.04138
      0.00005      0.00005      0.00005
      0.00194      0.00401     -0.00230
     -0.00065      0.00137      0.00109
      0.00194     -0.00230      0.00401
      0.00138     -0.00098     -0.00097
      0.01847     -0.01422      0.00092
     -0.00065      0.00109      0.00137
      0.01847      0.00092     -0.01422
      0.01697      0.00398      0.00398
      0.00230      0.00005      0.00005
      0.00279      0.00130     -0.00014
      0.00347      0.00197      0.00039
      0.00279     -0.00014      0.00130
      0.00664      0.00127      0.00127
      0.00466     -0.00030     -0.00263
      0.00347      0.00039      0.00197
      0.00466     -0.00263     -0.00030
     -0.01552      0.00643      0.00643
     -0.00062      0.00414      0.00414
      0.00038      0.00326      0.00228
     -0.00113      0.00531     -0.00513
      0.00038      0.00228      0.00326
      0.02956      0.07042      0.07042
      0.00338      0.00086     -0.04252
     -0.00113     -0.00513      0.00531
      0.00338     -0.04252      0.00086
     -0.00378     -0.01051     -0.01051
      0.00021      0.00037      0.00037
      0.00034     -0.00116     -0.00103
      0.00194     -0.00285      0.00182
      0.00034     -0.00103     -0.00116
      0.01536     -0.00468     -0.00468
      0.02180     -0.00285      0.02045
      0.00194      0.00182     -0.00285
      0.02180      0.02045     -0.00285
      0.00063      0.00161      0.00161
      0.00260      0.00056      0.00056
      0.00564     -0.00036     -0.00057
      0.00240     -0.00064      0.00028
      0.00564     -0.00057     -0.00036
     -0.00321     -0.00518     -0.00518
      0.00332      0.00214      0.00072
      0.00240      0.00028     -0.00064
      0.00332      0.00072      0.00214
      0.00430     -0.00058     -0.00058
     -0.00144      0.00208     -0.00185
     -0.00218     -0.00038     -0.00063
     -0.00271     -0.00151     -0.00087
     -0.00247      0.00011      0.00183
      0.00308     -0.00005     -0.00001
      0.00596     -0.01072      0.01036
     -0.00077     -0.00004      0.00118
      0.14061      0.04976     -0.04697
     -0.00291     -0.00264     -0.00349
      0.00193      0.00094     -0.00053
      0.00575      0.00463     -0.00039
      0.00216     -0.00014      0.00067
      0.00280     -0.00040      0.00101
      0.00453     -0.00389     -0.00173
      0.00590     -0.00247      0.00215
      0.00472     -0.00005     -0.00271
      0.00690      0.00081     -0.00200
      0.00230      0.00173      0.00482
      0.00173      0.00044      0.00032
      0.00555     -0.00463      0.00076
      0.00207      0.00142      0.00030
      0.00299      0.00009     -0.00018
      0.00689      0.00080     -0.00323
     -0.00481      0.00060     -0.00145
      0.00391     -0.00134      0.00364
     -0.03244     -0.00729      0.01943
     -0.00045      0.00398      0.00229
     -0.00144     -0.00185      0.00208
     -0.00247      0.00183      0.00011
     -0.00077      0.00118     -0.00004
     -0.00218     -0.00063     -0.00038
      0.00308     -0.00001     -0.00005
      0.14061     -0.04697      0.04976
     -0.00271     -0.00087     -0.00151
      0.00596      0.01036     -0.01073
     -0.00291     -0.00349     -0.00264
      0.00193     -0.00053      0.00094
      0.00280      0.00101     -0.00040
      0.00472     -0.00271     -0.00005
      0.00575     -0.00039      0.00463
      0.00453     -0.00173     -0.00389
      0.00690     -0.00200      0.00081
      0.00216      0.00067     -0.00014
      0.00590      0.00215     -0.00247
      0.00230      0.00482      0.00172
      0.00173      0.00032      0.00044
      0.00299     -0.00018      0.00009
      0.00391      0.00364     -0.00134
      0.00555      0.00076     -0.00463
      0.00689     -0.00323      0.00080
     -0.03244      0.01943     -0.00729
      0.00207      0.00030      0.00142
     -0.00481     -0.00145      0.00060
     -0.00045      0.00229      0.00398
      0.00262      0.00428     -0.00373
      0.00402      0.00114      0.00625
      0.00555      0.00875     -0.00153
      0.00554      0.00068     -0.01195
      0.01620      0.01231      0.02460
      0.16352      0.06284     -0.09267
      0.00426     -0.00352      0.00007
      0.00250     -0.02161      0.02357
      0.01580     -0.01020     -0.00892
     -0.00083     -0.00037     -0.00011
     -0.00069     -0.00015      0.00020
      0.00120     -0.00152      0.00085
      0.00205     -0.00015      0.00084
      0.00093      0.00212      0.00308
      0.00395     -0.00163      0.00178
     -0.00181     -0.00053     -0.00144
      0.00223      0.00099      0.00014
     -0.00691     -0.00821     -0.00211
      0.00042     -0.00007     -0.00000
     -0.00029     -0.00284     -0.00141
      0.00112     -0.00093      0.00176
      0.00185     -0.00151      0.00038
     -0.01186      0.00205     -0.01519
     -0.01265     -0.00415      0.00350
     -0.00062      0.00166      0.00268
     -0.00051      0.00193     -0.00139
     -0.01726      0.01768     -0.00146
      0.00262     -0.00373      0.00429
      0.00554     -0.01195      0.00068
      0.00426      0.00007     -0.00352
      0.00402      0.00625      0.00114
      0.01620      0.02460      0.01231
      0.00250      0.02358     -0.02160
      0.00555     -0.00153      0.00875
      0.16352     -0.09267      0.06283
      0.01580     -0.00893     -0.01019
     -0.00083     -0.00011     -0.00037
      0.00205      0.00084     -0.00015
     -0.00181     -0.00144     -0.00053
     -0.00069      0.00019     -0.00015
      0.00093      0.00308      0.00212
      0.00223      0.00014      0.00099
      0.00120      0.00085     -0.00152
      0.00395      0.00178     -0.00163
     -0.00691     -0.00211     -0.00821
      0.00042     -0.00000     -0.00007
      0.00185      0.00039     -0.00151
     -0.00062      0.00268      0.00166
     -0.00029     -0.00141     -0.00284
     -0.01186     -0.01519      0.00205
     -0.00051     -0.00139      0.00193
      0.00112      0.00176     -0.00093
     -0.01265      0.00350     -0.00415
     -0.01726     -0.00146      0.01768
     -0.00002     -0.00035     -0.00035
     -0.00033      0.00098      0.00153
     -0.00037      0.00162      0.00080
     -0.00033      0.00153      0.00098
     -0.87410      0.05149      0.05149
      0.02373     -0.00335      0.00172
     -0.00037      0.00080      0.00162
      0.02373      0.00172     -0.00335
      0.00280     -0.01088     -0.01088
     -0.00082     -0.00038     -0.00038
     -0.00198     -0.00234      0.00017
     -0.00067     -0.00077      0.00065
     -0.00198      0.00017     -0.00234
     -0.00153     -0.00125     -0.00125
     -0.00188     -0.00092      0.00371
     -0.00067      0.00065     -0.00077
     -0.00188      0.00371     -0.00091
     -0.00458      0.00074      0.00074
      0.00294     -0.00285     -0.00285
      0.00688     -0.00397      0.00084
      0.00393      0.00179      0.00128
      0.00688      0.00084     -0.00397
     -0.06521     -0.09105     -0.09105
      0.01403     -0.01017     -0.00177
      0.00393      0.00127      0.00179
      0.01403     -0.00177     -0.01017
      0.00377      0.01606      0.01606
     -0.00016     -0.00143     -0.00143
     -0.00012     -0.00180     -0.00129
      0.00074     -0.00320     -0.00041
     -0.00012     -0.00129     -0.00180
      0.00505      0.00164      0.00164
      0.02524      0.00412      0.00513
      0.00074     -0.00041     -0.00320
      0.02524      0.00513      0.00412
     -0.02195     -0.07344     -0.07344
     -0.00111      0.00012      0.00012
     -0.00044      0.00057     -0.00047
     -0.00398      0.00145      0.00006
     -0.00044     -0.00047      0.00058
     -0.00218     -0.00096     -0.00096
     -0.00130     -0.00301      0.00155
     -0.00398      0.00006      0.00145
     -0.00130      0.00155     -0.00301
     -0.00931      0.00164      0.00164
      0.00283      0.00255      0.00255
      0.00384     -0.00216     -0.00113
      0.00471      0.00368     -0.00018
      0.00384     -0.00113     -0.00216
      0.00291     -0.01875     -0.01875
      0.01134     -0.00065      0.01161
      0.00471     -0.00018      0.00368
      0.01134      0.01161     -0.00065
     -0.10127      0.09098      0.09098

 NEB: forces: par spring, perp REAL, dneb     0.003520    0.014671    0.000000
 NEB: distance to prev, next image, angle between     0.686584    0.687288  135.703241
 NEB: projections on to tangent (spring, REAL)     0.003520    0.375930

 stress matrix after NEB project (eV)
      0.00000      0.00000      0.00000
      0.00000      0.00000      0.00000
      0.00000      0.00000      0.00000
  FORCES: max atom, RMS     0.006369    0.001027
  FORCE total and by dimension    0.015087    0.004416
  Stress total and by dimension    0.000000    0.000000
 OPT: skip step - force has converged


--------------------------------------------------------------------------------------------------------


  
 reached required accuracy - stopping structural energy minimisation
 writing wavefunctions
     LOOP+:  cpu time    266.9517: real time    268.4646
    4ORBIT:  cpu time      0.0000: real time      0.0000

 total amount of memory used by VASP MPI-rank0  1466161. kBytes
=======================================================================

   base      :      30000. kBytes
   nonl-proj :     114397. kBytes
   fftplans  :     141100. kBytes
   grid      :     372121. kBytes
   one-center:       1327. kBytes
   wavefun   :     807216. kBytes
 
  
  
 General timing and accounting informations for this job:
 ========================================================
  
                  Total CPU time used (sec):     7154.976
                            User time (sec):     7095.714
                          System time (sec):       59.262
                         Elapsed time (sec):     7182.589
  
                   Maximum memory used (kb):     3139552.
                   Average memory used (kb):          N/A
  
                          Minor page faults:      1032213
                          Major page faults:            0
                 Voluntary context switches:       289664
