 vasp.6.4.2 20Jul23 (build Jun  3 2025 15:36:07) complex                         
 executed on              LinuxNV date 2025.06.27  12:57:04
 running    7 mpi-ranks, with    1 threads/rank, on    7 nodes
 each image running on    1 cores
 distrk:  each k-point on    1 cores,    1 groups
 distr:  one band on NCORE=   1 cores,    1 groups
 OpenACC runtime initialized ...    7 GPUs detected


--------------------------------------------------------------------------------------------------------


 INCAR:
   SYSTEM = Si
   ISTART = 1
   ICHARG = 2
   NCORE = 8
   ISPIN = 2
   NELECT = 1080
   NELM = 20
   ENCUT = 400
   PREC = Accurate
   ISMEAR = 0
   SIGMA = 0.01
   EDIFF = 1E-10
   IBRION = 3
   NSW = 500
   POTIM = 0
   ISIF = 0
   IOPT = 1
   EDIFFG = -0.010
   ICHAIN = 0
   IMAGES = 7
   SPRING = -5.0
   LCLIMB = .FALSE.

 POTCAR:   PAW_PBE F 08Apr2002                    
 POTCAR:    PAW_PBE Li_sv 10Sep2004               
 -----------------------------------------------------------------------------
|                                                                             |
|           W    W    AA    RRRRR   N    N  II  N    N   GGGG   !!!           |
|           W    W   A  A   R    R  NN   N  II  NN   N  G    G  !!!           |
|           W    W  A    A  R    R  N N  N  II  N N  N  G       !!!           |
|           W WW W  AAAAAA  RRRRR   N  N N  II  N  N N  G  GGG   !            |
|           WW  WW  A    A  R   R   N   NN  II  N   NN  G    G                |
|           W    W  A    A  R    R  N    N  II  N    N   GGGG   !!!           |
|                                                                             |
|     You use a magnetic or noncollinear calculation, but did not specify     |
|     the initial magnetic moment with the MAGMOM tag. Note that a            |
|     default of 1 will be used for all atoms. This ferromagnetic setup       |
|     may break the symmetry of the crystal, in particular it may rule        |
|     out finding an antiferromagnetic solution. Thence, we recommend         |
|     setting the initial magnetic moment manually or verifying carefully     |
|     that this magnetic setup is desired.                                    |
|                                                                             |
 -----------------------------------------------------------------------------

 POTCAR:   PAW_PBE F 08Apr2002                    
   VRHFIN =F: s2p5                                                                                  
   LEXCH  = PE                                                                                      
   EATOM  =   659.4942 eV,   48.4715 Ry                                                             
                                                                                                    
   TITEL  = PAW_PBE F 08Apr2002                                                                     
   LULTRA =        F    use ultrasoft PP ?                                                          
   IUNSCR =        0    unscreen: 0-lin 1-nonlin 2-no                                               
   RPACOR =     .000    partial core radius                                                         
   POMASS =   18.998; ZVAL   =    7.000    mass and valenz                                          
   RCORE  =    1.520    outmost cutoff radius                                                       
   RWIGS  =    1.500; RWIGS  =     .794    wigner-seitz radius (au A)                               
   ENMAX  =  400.000; ENMIN  =  300.000 eV                                                          
   ICORE  =        2    local potential                                                             
   LCOR   =        T    correct aug charges                                                         
   LPAW   =        T    paw PP                                                                      
   EAUG   =  613.614                                                                                
   DEXC   =     .000                                                                                
   RMAX   =    2.254    core radius for proj-oper                                                   
   RAUG   =    1.300    factor for augmentation sphere                                              
   RDEP   =    1.539    radius for radial grids                                                     
   QCUT   =   -5.545; QGAM   =   11.091    optimization parameters                                  
                                                                                                    
   Description                                                                                      
     l     E      TYP  RCUT    TYP  RCUT                                                            
     0   .000     23  1.200                                                                         
     0  -.700     23  1.200                                                                         
     1   .000     23  1.520                                                                         
     1   .100     23  1.520                                                                         
     2   .000      7  1.500                                                                         
  local pseudopotential read in
  atomic valenz-charges read in
  non local Contribution for L=            0  read in
    real space projection operators read in
  non local Contribution for L=            0  read in
    real space projection operators read in
  non local Contribution for L=            1  read in
    real space projection operators read in
  non local Contribution for L=            1  read in
    real space projection operators read in
    PAW grid and wavefunctions read in
 
   number of l-projection  operators is LMAX  =            4
   number of lm-projection operators is LMMAX =            8
 
 POTCAR:    PAW_PBE Li_sv 10Sep2004               
   VRHFIN =Li: 1s2s2p                                                                               
   LEXCH  = PE                                                                                      
   EATOM  =   202.7858 eV,   14.9043 Ry                                                             
                                                                                                    
   TITEL  = PAW_PBE Li_sv 10Sep2004                                                                 
   LULTRA =        F    use ultrasoft PP ?                                                          
   IUNSCR =        0    unscreen: 0-lin 1-nonlin 2-no                                               
   RPACOR =     .000    partial core radius                                                         
   POMASS =    7.010; ZVAL   =    3.000    mass and valenz                                          
   RCORE  =    1.700    outmost cutoff radius                                                       
   RWIGS  =    2.050; RWIGS  =    1.085    wigner-seitz radius (au A)                               
   ENMAX  =  499.034; ENMIN  =  374.276 eV                                                          
   ICORE  =        2    local potential                                                             
   LCOR   =        T    correct aug charges                                                         
   LPAW   =        T    paw PP                                                                      
   EAUG   =  628.945                                                                                
   RMAX   =    2.064    core radius for proj-oper                                                   
   RAUG   =    1.300    factor for augmentation sphere                                              
   RDEP   =    1.728    radius for radial grids                                                     
   QCUT   =   -6.056; QGAM   =   12.112    optimization parameters                                  
                                                                                                    
   Description                                                                                      
     l     E      TYP  RCUT    TYP  RCUT                                                            
     0   .000     23  1.400                                                                         
     0   .000     23  1.700                                                                         
     1   .000     23  1.400                                                                         
     2   .000     23  1.400                                                                         
  local pseudopotential read in
  atomic valenz-charges read in
  non local Contribution for L=            0  read in
    real space projection operators read in
  non local Contribution for L=            0  read in
    real space projection operators read in
  non local Contribution for L=            1  read in
    real space projection operators read in
    PAW grid and wavefunctions read in
 
   number of l-projection  operators is LMAX  =            3
   number of lm-projection operators is LMMAX =            5
 
 -----------------------------------------------------------------------------
|                                                                             |
|               ----> ADVICE to this user running VASP <----                  |
|                                                                             |
|     You have a (more or less) 'large supercell' and for larger cells it     |
|     might be more efficient to use real-space projection operators.         |
|     Therefore, try LREAL= Auto in the INCAR file.                           |
|     Mind: If you want to do very accurate calculations, keep the            |
|     reciprocal projection scheme (i.e. LREAL=.FALSE.).                      |
|                                                                             |
 -----------------------------------------------------------------------------

 PAW_PBE F 08Apr2002                    :
 energy of atom  1       EATOM= -659.4942
 kinetic energy error for atom=    0.1980 (will be added to EATOM!!)
  PAW_PBE Li_sv 10Sep2004               :
 energy of atom  2       EATOM= -202.7858
 kinetic energy error for atom=    0.0926 (will be added to EATOM!!)
 
 
 POSCAR: Li   F
  positions in direct lattice
  No initial velocities read in
 exchange correlation table for  LEXCH =        8
   RHO(1)=    0.500       N(1)  =     2000
   RHO(2)=  100.500       N(2)  =     4000

 VTST: version 4.1, (05/19/21)

 CHAIN: initializing optimizer
 
 OPT: Using LBFGS optimizer
 OPT: LBFGS, Init
 OPT: LBFGS, MEMORY             20
 OPT: LBFGS, IMAGES              7
 OPT: LBFGS, MAXMOVE      0.200000
 OPT: LBFGS, LGLOBAL      T
 OPT: LBFGS, INVCURV      0.010000
 OPT: LBFGS, LLINEOPT      F
 OPT: LBFGS, FDSTEP       0.005000
 OPT: LBFGS, LAUTOSCALE      T
 OPT: LBFGS, DAMPING      2.000000
 
 CHAIN: Read ICHAIN             0
 CHAIN: Running the NEB
 NEB:          SPRING     -5.000000
 NEB:          LCLIMB      F
 NEB:     LTANGENTOLD      F
 NEB:           LDNEB      F
 NEB:        LDNEBORG      F
 NEB:        LNEBCELL      F
 NEB:          EFIRST      0.000000
 NEB:           ELAST      0.000000
 
 POSCAR: Li   F
  positions in direct lattice
  No initial velocities read in
 
 POSCAR: Li   F
  positions in direct lattice
  No initial velocities read in
 
 POSCAR: Li   F
  positions in direct lattice
  No initial velocities read in
 
 POSCAR: Li   F
  positions in direct lattice
  No initial velocities read in
 


--------------------------------------------------------------------------------------------------------


 ion  position               nearest neighbor table
   1  0.000  1.000  1.000- 208 2.01 115 2.01 138 2.01 136 2.01 109 2.01 190 2.01
   2  0.000  1.000  0.333- 116 2.01 136 2.01 110 2.01 137 2.01 209 2.01 191 2.01
   3  0.000  1.000  0.667- 138 2.01 192 2.01 210 2.01 137 2.01 111 2.01 117 2.02
   4  0.000  0.333  1.000- 141 2.01 109 2.01 139 2.01 112 2.01 211 2.01 193 2.01
   5  1.000  0.334  0.334- 212 2.01 140 2.01 113 2.01 139 2.02 110 2.02 194 2.02
   6  0.001  0.333  0.666- 114 1.97 111 2.01 140 2.01 141 2.02 213 2.02 195 2.03
   7  0.000  0.667  1.000- 115 2.01 196 2.01 214 2.01 112 2.01 142 2.01 144 2.02
   8  0.001  0.666  0.333- 143 1.97 142 2.01 113 2.01 116 2.02 215 2.02 197 2.03
   9  0.002  0.666  0.666- 198 2.01 117 2.02 144 2.02 143 2.05 114 2.05 216 2.16
  10  0.333  1.000  1.000- 199 2.01 124 2.01 147 2.01 190 2.01 145 2.01 118 2.01
  11  0.333  0.000  0.333- 200 2.01 145 2.01 191 2.01 146 2.01 125 2.01 119 2.01
  12  0.333  0.000  0.667- 201 2.00 120 2.01 192 2.01 147 2.01 126 2.01 146 2.02
  13  0.333  0.333  0.000- 202 2.01 118 2.01 193 2.01 121 2.01 150 2.01 148 2.01
  14  0.333  0.333  0.333- 203 2.01 119 2.01 148 2.01 194 2.01 149 2.01 122 2.01
  15  0.334  0.333  0.667- 195 2.00 204 2.00 120 2.01 150 2.01 149 2.02 123 2.02
  16  0.333  0.667  0.000- 205 2.00 151 2.01 196 2.01 124 2.01 153 2.01 121 2.02
  17  0.334  0.667  0.333- 197 2.00 206 2.00 151 2.01 125 2.01 122 2.02 152 2.02
  18  0.334  0.667  0.667- 207 2.00 198 2.00 126 2.01 153 2.01 152 2.02 123 2.02
  19  0.667  1.000  1.000- 156 2.01 133 2.01 208 2.01 199 2.02 127 2.02 154 2.02
  20  0.667  1.000  0.333- 155 2.01 128 2.01 154 2.01 134 2.01 200 2.01 209 2.01
  21  0.666  0.001  0.667- 135 1.98 129 2.01 156 2.01 201 2.02 155 2.02 210 2.02
  22  0.667  0.333  0.000- 130 2.01 157 2.01 127 2.01 202 2.01 159 2.01 211 2.01
  23  0.667  0.333  0.333- 212 2.01 157 2.01 128 2.01 158 2.01 131 2.01 203 2.02
  24  0.666  0.333  0.666- 129 2.01 158 2.01 204 2.01 132 2.01 159 2.02 213 2.02
  25  0.666  0.667  0.001- 162 1.98 160 2.01 133 2.01 205 2.02 130 2.02 214 2.02
  26  0.666  0.666  0.333- 160 2.01 131 2.01 206 2.01 161 2.01 134 2.02 215 2.02
  27  0.664  0.667  0.667- 216 1.93 207 2.00 161 2.02 132 2.02 135 2.04 162 2.04
  28  1.000  0.167  0.167- 181 2.01 136 2.01 109 2.01 110 2.01 139 2.01 163 2.01
  29  1.000  0.166  0.500- 182 2.01 137 2.01 110 2.01 111 2.01 164 2.02 140 2.02
  30  0.000  0.167  0.833- 138 2.01 141 2.01 109 2.01 183 2.01 165 2.01 111 2.02
  31  1.000  0.500  0.166- 184 2.01 112 2.01 139 2.01 142 2.01 166 2.02 113 2.02
  32  0.986  0.500  0.500- 167 1.51 185 1.89 113 2.02 140 2.02 143 2.04 114 2.04
  33  0.000  0.500  0.833- 114 2.00 144 2.01 141 2.02 186 2.02 112 2.02 168 2.03
  34  0.000  0.833  0.167- 115 2.01 116 2.01 136 2.01 187 2.01 169 2.01 142 2.02
  35  0.000  0.833  0.500- 143 2.00 117 2.01 116 2.02 188 2.02 137 2.02 170 2.03
  36  0.999  0.833  0.833- 189 2.00 144 2.02 117 2.02 138 2.02 115 2.02 171 2.02
  37  0.333  0.167  0.167- 172 2.01 118 2.01 145 2.01 163 2.01 148 2.01 119 2.01
  38  0.334  0.166  0.500- 173 2.00 146 2.00 119 2.01 120 2.01 164 2.01 149 2.03
  39  0.333  0.166  0.833- 174 2.01 147 2.01 118 2.01 165 2.01 150 2.01 120 2.02
  40  0.334  0.500  0.166- 175 2.00 121 2.00 148 2.01 151 2.01 166 2.01 122 2.03
  41  0.338  0.500  0.500- 176 1.97 149 2.00 122 2.00 123 2.00 152 2.00
  42  0.334  0.500  0.834- 177 2.00 121 2.00 168 2.01 150 2.01 153 2.01 123 2.04
  43  0.333  0.833  0.166- 178 2.01 124 2.01 145 2.01 169 2.01 125 2.01 151 2.02
  44  0.334  0.834  0.500- 179 2.00 146 2.00 170 2.01 125 2.01 126 2.01 152 2.04
  45  0.333  0.834  0.834- 180 2.01 147 2.01 124 2.01 171 2.01 153 2.02 126 2.02
  46  0.667  0.166  0.167- 154 2.01 128 2.01 127 2.01 157 2.01 181 2.01 172 2.02
  47  0.666  0.166  0.500- 158 2.00 155 2.00 128 2.01 173 2.02 129 2.02 182 2.02
  48  0.667  0.167  0.834- 156 2.01 127 2.01 174 2.01 159 2.01 129 2.01 183 2.02
  49  0.666  0.500  0.166- 131 2.00 130 2.00 157 2.01 175 2.02 160 2.02 184 2.02
  50  0.667  0.499  0.499- 185 1.97 176 2.00 131 2.02 158 2.02 161 2.02 132 2.02
  51  0.666  0.501  0.834- 162 2.00 130 2.01 177 2.01 159 2.02 132 2.02 186 2.02
  52  0.667  0.833  0.167- 133 2.01 154 2.01 178 2.01 134 2.01 160 2.01 187 2.02
  53  0.666  0.834  0.501- 135 2.00 155 2.01 179 2.01 134 2.02 161 2.02 188 2.02
  54  0.668  0.832  0.832- 189 2.01 135 2.01 162 2.01 133 2.03 156 2.03 180 2.03
  55  0.167  0.000  0.167- 190 2.01 136 2.01 191 2.01 169 2.01 145 2.01 163 2.01
  56  0.167  0.000  0.500- 170 1.99 164 2.00 137 2.01 146 2.01 191 2.02 192 2.02
  57  0.167  1.000  0.833- 138 2.01 147 2.01 190 2.01 165 2.01 171 2.01 192 2.01
  58  0.167  0.333  0.166- 163 2.01 139 2.01 193 2.01 148 2.01 166 2.02 194 2.03
  59  0.166  0.329  0.500- 164 1.98 140 2.00 195 2.00 194 2.01 149 2.01
  60  0.167  0.333  0.834- 165 2.01 193 2.01 141 2.01 150 2.01 168 2.02 195 2.03
  61  0.167  0.667  0.166- 196 2.00 197 2.01 169 2.01 151 2.01 142 2.01 166 2.02
  62  0.169  0.671  0.499- 167 1.95 143 1.95 170 1.98 152 1.98 198 2.01 197 2.02
  63  0.167  0.667  0.834- 196 2.01 144 2.01 171 2.01 153 2.01 168 2.02 198 2.03
  64  0.500  0.000  0.167- 199 2.01 154 2.01 178 2.01 172 2.01 200 2.01 145 2.01
  65  0.500  0.000  0.500- 173 2.01 155 2.01 146 2.01 201 2.01 200 2.01 179 2.01
  66  0.500  1.000  0.833- 156 2.01 180 2.01 199 2.01 201 2.01 174 2.02 147 2.02
  67  0.500  0.333  0.167- 157 2.01 172 2.01 202 2.01 203 2.01 175 2.01 148 2.02
  68  0.500  0.333  0.500- 158 2.00 173 2.01 203 2.01 204 2.01 176 2.02 149 2.03
  69  0.500  0.333  0.834- 174 2.01 177 2.01 159 2.01 202 2.01 150 2.01 204 2.02
  70  0.500  0.667  0.167- 205 2.00 151 2.01 206 2.01 160 2.01 178 2.01 175 2.02
  71  0.500  0.667  0.500- 161 2.00 179 2.01 206 2.01 207 2.01 152 2.02 176 2.02
  72  0.499  0.667  0.834- 162 1.98 153 2.01 180 2.01 205 2.01 177 2.02 207 2.02
  73  0.833  0.000  0.167- 208 2.00 181 2.01 209 2.01 187 2.01 136 2.01 154 2.02
  74  0.833  1.000  0.500- 182 2.01 188 2.01 209 2.01 137 2.01 155 2.01 210 2.01
  75  0.833  0.001  0.834- 189 1.98 183 2.01 208 2.01 156 2.02 138 2.02 210 2.02
  76  0.833  0.333  0.166- 212 2.00 211 2.01 181 2.01 157 2.02 139 2.02 184 2.02
  77  0.833  0.332  0.499- 185 1.96 182 2.00 158 2.02 213 2.02 212 2.03 140 2.03
  78  0.833  0.333  0.833- 183 2.01 211 2.01 186 2.01 159 2.02 141 2.02 213 2.02
  79  0.833  0.667  0.167- 214 2.01 187 2.01 215 2.01 160 2.02 184 2.02 142 2.02
  80  0.830  0.668  0.499- 161 1.99 188 1.99 215 2.00 185 2.11 143 2.14 216 2.15
  81  0.833  0.667  0.835- 216 1.92 214 2.00 144 2.02 186 2.02 189 2.05 162 2.05
  82  0.167  0.167  0.000- 190 2.01 109 2.01 193 2.01 165 2.01 118 2.01 163 2.01
  83  0.167  0.166  0.333- 163 2.01 110 2.01 191 2.01 119 2.01 164 2.02 194 2.03
  84  0.167  0.166  0.667- 192 2.00 195 2.01 165 2.01 120 2.01 111 2.01 164 2.02
  85  0.167  0.500  0.000- 168 1.99 166 2.00 112 2.01 121 2.01 193 2.02 196 2.02
  86  0.166  0.500  0.329- 166 1.98 113 2.00 197 2.00 194 2.01 122 2.01
  87  0.169  0.499  0.671- 167 1.95 114 1.95 168 1.98 123 1.98 198 2.01 195 2.02
  88  0.167  0.833  1.000- 115 2.01 124 2.01 190 2.01 169 2.01 171 2.01 196 2.01
  89  0.167  0.834  0.333- 169 2.01 191 2.01 116 2.01 125 2.01 170 2.02 197 2.03
  90  0.167  0.834  0.667- 192 2.01 117 2.01 171 2.01 126 2.01 170 2.02 198 2.03
  91  0.500  0.167  0.000- 199 2.01 127 2.01 174 2.01 172 2.01 202 2.01 118 2.01
  92  0.500  0.167  0.333- 128 2.01 172 2.01 200 2.01 173 2.01 203 2.01 119 2.02
  93  0.500  0.167  0.667- 201 2.00 120 2.01 204 2.01 129 2.01 174 2.01 173 2.02
  94  0.500  0.500  0.000- 175 2.01 130 2.01 121 2.01 205 2.01 202 2.01 177 2.01
  95  0.500  0.500  0.333- 131 2.00 175 2.01 203 2.01 206 2.01 176 2.02 122 2.03
  96  0.500  0.500  0.667- 132 2.00 177 2.01 204 2.01 207 2.01 123 2.02 176 2.02
  97  0.500  0.833  1.000- 133 2.01 180 2.01 199 2.01 205 2.01 178 2.02 124 2.02
  98  0.500  0.834  0.333- 178 2.01 179 2.01 134 2.01 200 2.01 125 2.01 206 2.02
  99  0.499  0.834  0.667- 135 1.98 126 2.01 180 2.01 201 2.01 179 2.02 207 2.02
 100  0.833  0.167  0.000- 208 2.00 181 2.01 211 2.01 183 2.01 109 2.01 127 2.02
 101  0.833  0.166  0.333- 212 2.00 209 2.01 181 2.01 128 2.02 110 2.02 182 2.02
 102  0.833  0.167  0.667- 210 2.01 183 2.01 213 2.01 129 2.02 182 2.02 111 2.02
 103  0.833  0.500  1.000- 184 2.01 186 2.01 211 2.01 112 2.01 130 2.01 214 2.01
 104  0.833  0.499  0.332- 185 1.96 184 2.00 131 2.02 215 2.02 212 2.03 113 2.03
 105  0.830  0.499  0.668- 132 1.99 186 1.99 213 2.00 185 2.11 114 2.14 216 2.15
 106  0.833  0.834  0.001- 189 1.98 187 2.01 208 2.01 133 2.02 115 2.02 214 2.02
 107  0.833  0.833  0.333- 187 2.01 209 2.01 188 2.01 116 2.02 134 2.02 215 2.02
 108  0.833  0.835  0.667- 216 1.92 210 2.00 117 2.02 188 2.02 189 2.05 135 2.05
 109  0.000  0.167  0.000-  82 2.01  28 2.01   4 2.01  30 2.01   1 2.01 100 2.01
 110  0.000  0.167  0.333-  83 2.01  29 2.01   2 2.01  28 2.01   5 2.02 101 2.02
 111  0.000  0.167  0.666-   6 2.01  29 2.01  84 2.01   3 2.01 102 2.02  30 2.02
 112  0.000  0.500  1.000-  31 2.01  85 2.01   4 2.01   7 2.01 103 2.01  33 2.02
 113  0.001  0.500  0.333-  86 2.00   5 2.01   8 2.01  31 2.02  32 2.02 104 2.03
 114  0.008  0.496  0.667-  87 1.95   6 1.97  33 2.00  32 2.04   9 2.05 167 2.11 105 2.14
 115  0.000  0.833  0.000-  34 2.01  88 2.01   7 2.01   1 2.01  36 2.02 106 2.02
 116  0.000  0.834  0.333-  34 2.01   2 2.01  89 2.01  35 2.02 107 2.02   8 2.02
 117  0.000  0.833  0.666-  90 2.01  35 2.01   3 2.02  36 2.02 108 2.02   9 2.02
 118  0.333  0.167  0.000-  37 2.01  13 2.01  39 2.01  82 2.01  10 2.01  91 2.01
 119  0.333  0.167  0.333-  14 2.01  83 2.01  38 2.01  11 2.01  37 2.01  92 2.02
 120  0.333  0.167  0.667-  15 2.01  12 2.01  84 2.01  93 2.01  38 2.01  39 2.02
 121  0.333  0.500  0.000-  42 2.00  40 2.00  94 2.01  13 2.01  85 2.01  16 2.02
 122  0.332  0.500  0.334-  41 2.00  86 2.01  14 2.01  17 2.02  95 2.03  40 2.03
 123  0.333  0.500  0.666-  87 1.98  41 2.00  15 2.02  18 2.02  96 2.02  42 2.04
 124  0.333  0.833  0.000-  43 2.01  45 2.01  88 2.01  10 2.01  16 2.01  97 2.02
 125  0.333  0.833  0.333-  44 2.01  17 2.01  89 2.01  98 2.01  11 2.01  43 2.01
 126  0.333  0.833  0.666-  99 2.01  18 2.01  90 2.01  44 2.01  12 2.01  45 2.02
 127  0.667  0.167  0.000-  22 2.01  48 2.01  46 2.01  91 2.01 100 2.02  19 2.02
 128  0.666  0.166  0.333-  92 2.01  20 2.01  46 2.01  47 2.01  23 2.01 101 2.02
 129  0.667  0.167  0.667-  21 2.01  24 2.01  93 2.01  48 2.01 102 2.02  47 2.02
 130  0.666  0.500  0.000-  49 2.00  22 2.01  94 2.01  51 2.01 103 2.01  25 2.02
 131  0.665  0.500  0.332-  95 2.00  49 2.00  26 2.01  23 2.01 104 2.02  50 2.02
 132  0.666  0.500  0.667- 105 1.99  96 2.00  24 2.01  51 2.02  27 2.02  50 2.02
 133  0.666  0.834  0.000-  52 2.01  19 2.01  97 2.01  25 2.01 106 2.02  54 2.03
 134  0.667  0.833  0.333-  98 2.01  20 2.01  52 2.01  26 2.02 107 2.02  53 2.02
 135  0.663  0.837  0.666-  99 1.98  21 1.98  53 2.00  54 2.01  27 2.04 108 2.05
 136  0.000  0.000  0.167-  55 2.01  28 2.01   2 2.01  34 2.01   1 2.01  73 2.01
 137  0.000  1.000  0.500-  29 2.01  56 2.01   2 2.01   3 2.01  74 2.01  35 2.02
 138  0.000  0.000  0.833-  30 2.01  57 2.01   3 2.01   1 2.01  36 2.02  75 2.02
 139  0.000  0.333  0.167-  58 2.01  31 2.01   4 2.01  28 2.01  76 2.02   5 2.02
 140  0.001  0.333  0.500-  59 2.00   5 2.01   6 2.01  29 2.02  32 2.02  77 2.03
 141  0.000  0.333  0.834-  30 2.01   4 2.01  60 2.01  33 2.02  78 2.02   6 2.02
 142  0.000  0.666  0.167-   8 2.01  31 2.01  61 2.01   7 2.01  79 2.02  34 2.02
 143  0.008  0.667  0.496-  62 1.95   8 1.97  35 2.00  32 2.04   9 2.05 167 2.11  80 2.14
 144  0.000  0.666  0.833-  63 2.01  33 2.01   7 2.02  36 2.02  81 2.02   9 2.02
 145  0.333  0.000  0.167-  37 2.01  11 2.01  43 2.01  55 2.01  10 2.01  64 2.01
 146  0.333  0.000  0.500-  44 2.00  38 2.00  65 2.01  11 2.01  56 2.01  12 2.02
 147  0.333  0.000  0.833-  39 2.01  45 2.01  57 2.01  10 2.01  12 2.01  66 2.02
 148  0.333  0.333  0.167-  14 2.01  58 2.01  40 2.01  37 2.01  13 2.01  67 2.02
 149  0.332  0.334  0.500-  41 2.00  59 2.01  14 2.01  15 2.02  68 2.03  38 2.03
 150  0.333  0.333  0.833-  42 2.01  15 2.01  60 2.01  69 2.01  13 2.01  39 2.01
 151  0.333  0.666  0.167-  17 2.01  16 2.01  61 2.01  70 2.01  40 2.01  43 2.02
 152  0.333  0.666  0.500-  62 1.98  41 2.00  17 2.02  18 2.02  71 2.02  44 2.04
 153  0.333  0.667  0.833-  72 2.01  18 2.01  63 2.01  42 2.01  16 2.01  45 2.02
 154  0.667  1.000  0.167-  20 2.01  46 2.01  52 2.01  64 2.01  73 2.02  19 2.02
 155  0.666  0.000  0.500-  47 2.00  20 2.01  65 2.01  53 2.01  74 2.01  21 2.02
 156  0.666  0.000  0.834-  48 2.01  19 2.01  66 2.01  21 2.01  75 2.02  54 2.03
 157  0.666  0.333  0.166-  22 2.01  67 2.01  46 2.01  23 2.01  49 2.01  76 2.02
 158  0.665  0.332  0.500-  68 2.00  47 2.00  24 2.01  23 2.01  77 2.02  50 2.02
 159  0.667  0.333  0.833-  69 2.01  48 2.01  22 2.01  78 2.02  24 2.02  51 2.02
 160  0.667  0.667  0.167-  25 2.01  26 2.01  70 2.01  52 2.01  79 2.02  49 2.02
 161  0.666  0.667  0.500-  80 1.99  71 2.00  26 2.01  53 2.02  27 2.02  50 2.02
 162  0.663  0.666  0.837-  72 1.98  25 1.98  51 2.00  54 2.01  27 2.04  81 2.05
 163  0.167  0.167  0.167-  58 2.01  83 2.01  37 2.01  82 2.01  55 2.01  28 2.01
 164  0.167  0.166  0.500-  59 1.98  56 2.00  38 2.01  83 2.02  29 2.02  84 2.02
 165  0.167  0.167  0.833-  60 2.01  84 2.01  57 2.01  39 2.01  82 2.01  30 2.01
 166  0.167  0.500  0.166-  86 1.98  85 2.00  40 2.01  58 2.02  31 2.02  61 2.02
 167  0.105  0.526  0.526-  32 1.51  62 1.95  87 1.95 143 2.11 114 2.11 198 2.51
 168  0.168  0.500  0.835-  87 1.98  85 1.99  42 2.01  60 2.02  63 2.02  33 2.03
 169  0.167  0.833  0.167-  89 2.01  61 2.01  88 2.01  43 2.01  55 2.01  34 2.01
 170  0.168  0.835  0.500-  62 1.98  56 1.99  44 2.01  89 2.02  90 2.02  35 2.03
 171  0.167  0.833  0.833-  90 2.01  63 2.01  45 2.01  88 2.01  57 2.01  36 2.02
 172  0.500  0.167  0.167-  37 2.01  92 2.01  67 2.01  64 2.01  91 2.01  46 2.02
 173  0.499  0.167  0.500-  38 2.00  68 2.01  65 2.01  92 2.01  47 2.02  93 2.02
 174  0.500  0.167  0.833-  69 2.01  39 2.01  91 2.01  93 2.01  48 2.01  66 2.02
 175  0.499  0.500  0.167-  40 2.00  95 2.01  94 2.01  67 2.01  49 2.02  70 2.02
 176  0.501  0.500  0.500-  41 1.97  50 2.00  68 2.02  95 2.02  96 2.02  71 2.02
 177  0.499  0.500  0.833-  42 2.00  96 2.01  69 2.01  51 2.01  94 2.01  72 2.02
 178  0.500  0.833  0.167-  98 2.01  43 2.01  64 2.01  70 2.01  52 2.01  97 2.02
 179  0.499  0.833  0.500-  44 2.00  71 2.01  98 2.01  53 2.01  65 2.01  99 2.02
 180  0.499  0.834  0.834-  45 2.01  66 2.01  97 2.01  72 2.01  99 2.01  54 2.03
 181  0.833  0.166  0.166-  73 2.01 100 2.01 101 2.01  76 2.01  28 2.01  46 2.01
 182  0.833  0.166  0.500-  77 2.00  29 2.01  74 2.01 102 2.02 101 2.02  47 2.02
 183  0.833  0.167  0.833-  75 2.01  78 2.01 102 2.01  30 2.01 100 2.01  48 2.02
 184  0.833  0.500  0.166- 104 2.00  31 2.01 103 2.01  79 2.02  76 2.02  49 2.02
 185  0.829  0.494  0.494-  32 1.89  77 1.96 104 1.96  50 1.97 105 2.11  80 2.11
 186  0.833  0.500  0.833- 105 1.99 103 2.01  78 2.01  33 2.02  81 2.02  51 2.02
 187  0.833  0.833  0.167- 106 2.01 107 2.01  79 2.01  34 2.01  73 2.01  52 2.02
 188  0.833  0.833  0.500-  80 1.99  74 2.01 107 2.01  35 2.02 108 2.02  53 2.02
 189  0.834  0.837  0.837-  75 1.98 106 1.98  36 2.00  54 2.01  81 2.05 108 2.05
 190  0.167  0.000  0.000-  82 2.01  55 2.01  88 2.01  57 2.01  10 2.01   1 2.01
 191  0.167  0.000  0.333-  83 2.01  89 2.01  55 2.01  11 2.01   2 2.01  56 2.02
 192  0.167  0.000  0.667-  84 2.00  90 2.01  12 2.01   3 2.01  57 2.01  56 2.02
 193  0.167  0.333  0.000-  58 2.01  60 2.01  82 2.01  13 2.01   4 2.01  85 2.02
 194  0.167  0.334  0.334-  86 2.01  59 2.01  14 2.01   5 2.02  83 2.03  58 2.03
 195  0.168  0.332  0.666-  15 2.00  59 2.00  84 2.01  87 2.02  60 2.03   6 2.03
 196  0.167  0.667  0.000-  61 2.00  63 2.01  16 2.01   7 2.01  88 2.01  85 2.02
 197  0.168  0.666  0.332-  17 2.00  86 2.00  61 2.01  62 2.02  89 2.03   8 2.03
 198  0.168  0.666  0.666-  18 2.00   9 2.01  62 2.01  87 2.01  90 2.03  63 2.03 167 2.51
 199  0.500  0.000  0.000-  91 2.01  64 2.01  10 2.01  66 2.01  97 2.01  19 2.02
 200  0.500  0.000  0.333-  11 2.01  92 2.01  98 2.01  64 2.01  20 2.01  65 2.01
 201  0.499  0.001  0.667-  93 2.00  12 2.00  65 2.01  99 2.01  66 2.01  21 2.02
 202  0.500  0.333  0.000-  13 2.01  67 2.01  69 2.01  91 2.01  22 2.01  94 2.01
 203  0.499  0.333  0.333-  14 2.01  68 2.01  95 2.01  67 2.01  92 2.01  23 2.02
 204  0.500  0.333  0.667-  15 2.00  96 2.01  93 2.01  24 2.01  68 2.01  69 2.02
 205  0.499  0.667  0.001-  70 2.00  16 2.00  94 2.01  72 2.01  97 2.01  25 2.02
 206  0.500  0.667  0.333-  17 2.00  71 2.01  70 2.01  26 2.01  95 2.01  98 2.02
 207  0.499  0.667  0.667-  27 2.00  18 2.00  96 2.01  71 2.01  72 2.02  99 2.02
 208  0.833  0.001  0.001- 100 2.00  73 2.00   1 2.01  19 2.01  75 2.01 106 2.01
 209  0.833  1.000  0.333- 101 2.01 107 2.01  73 2.01   2 2.01  74 2.01  20 2.01
 210  0.833  0.001  0.667- 108 2.00 102 2.01   3 2.01  74 2.01  21 2.02  75 2.02
 211  0.833  0.333  1.000-  76 2.01  78 2.01 100 2.01   4 2.01 103 2.01  22 2.01
 212  0.833  0.331  0.331-  76 2.00 101 2.00   5 2.01  23 2.01  77 2.03 104 2.03
 213  0.833  0.333  0.667- 105 2.00 102 2.01  78 2.02  24 2.02   6 2.02  77 2.02
 214  0.833  0.667  0.001-  81 2.00  79 2.01   7 2.01 103 2.01  25 2.02 106 2.02
 215  0.833  0.667  0.333-  80 2.00  79 2.01 107 2.02  26 2.02   8 2.02 104 2.02
 216  0.823  0.677  0.677-  81 1.92 108 1.92  27 1.93 105 2.15  80 2.15   9 2.16
 
  LATTYP: Found a simple cubic cell.
 ALAT       =    12.0789003372
  
  Lattice vectors:
  
 A1 = (  12.0789003372,   0.0000000000,   0.0000000000)
 A2 = (   0.0000000000,  12.0789003372,   0.0000000000)
 A3 = (   0.0000000000,   0.0000000000,  12.0789003372)


Analysis of symmetry for initial positions (statically):
=====================================================================
 Subroutine PRICEL returns:
 Original cell was already a primitive cell.
 

 Routine SETGRP: Setting up the symmetry group for a 
 simple cubic supercell.


 Subroutine GETGRP returns: Found  1 space group operations
 (whereof  1 operations were pure point group operations)
 out of a pool of 48 trial point group operations.


The static configuration has the point symmetry C_1 .


Analysis of symmetry for dynamics (positions and initial velocities):
=====================================================================
 Subroutine PRICEL returns:
 Original cell was already a primitive cell.
 

 Routine SETGRP: Setting up the symmetry group for a 
 simple cubic supercell.


 Subroutine GETGRP returns: Found  1 space group operations
 (whereof  1 operations were pure point group operations)
 out of a pool of 48 trial point group operations.


The dynamic configuration has the point symmetry C_1 .


Analysis of structural, dynamic, and magnetic symmetry:
=====================================================================
 Subroutine PRICEL returns:
 Original cell was already a primitive cell.
 

 Routine SETGRP: Setting up the symmetry group for a 
 simple cubic supercell.


 Subroutine GETGRP returns: Found  1 space group operations
 (whereof  1 operations were pure point group operations)
 out of a pool of 48 trial point group operations.


The overall configuration has the point symmetry C_1 .


 Subroutine INISYM returns: Found  1 space group operations
 (whereof  1 operations are pure point group operations),
 and found     1 'primitive' translations


----------------------------------------------------------------------------------------

                                     Primitive cell                                     

  volume of cell :    1762.3095

  direct lattice vectors                    reciprocal lattice vectors
    12.078900337  0.000000000  0.000000000     0.082788993  0.000000000  0.000000000
     0.000000000 12.078900337  0.000000000     0.000000000  0.082788993  0.000000000
     0.000000000  0.000000000 12.078900337     0.000000000  0.000000000  0.082788993

  length of vectors
    12.078900337 12.078900337 12.078900337     0.082788993  0.082788993  0.082788993

  position of ions in fractional coordinates (direct lattice)
     0.000029657  0.999975050  0.999976533
     0.000054518  0.999858678  0.333235751
     0.000060229  0.999881031  0.666631925
     0.000054828  0.333234847  0.999859175
     0.999604872  0.333541351  0.333544094
     0.000762155  0.332916603  0.666488624
     0.000059907  0.666631163  0.999882765
     0.000760632  0.666485780  0.332917265
     0.001580879  0.665845013  0.665845623
     0.333396439  0.999979438  0.999981038
     0.333385132  0.000091549  0.333124877
     0.333245256  0.000188769  0.666728363
     0.333384705  0.333124163  0.000077572
     0.333185459  0.333233494  0.333235108
     0.333738561  0.332682295  0.666760658
     0.333245524  0.666727836  0.000190494
     0.333740079  0.666758962  0.332683094
     0.333647037  0.666892163  0.666892619
     0.666704082  0.999850923  0.999851736
     0.666561833  0.999963081  0.333211784
     0.666035793  0.000683252  0.666848626
     0.666561036  0.333209412  0.000107282
     0.666855759  0.333133254  0.333147429
     0.666361580  0.333040462  0.666449443
     0.666035772  0.666845718  0.000685138
     0.666361742  0.666434564  0.333043534
     0.664346129  0.667294544  0.667296202
     0.999893324  0.166580327  0.166582364
     0.999672422  0.166094053  0.499867471
     0.000071357  0.166561123  0.833412454
     0.999670148  0.499868399  0.166094667
     0.985671065  0.500340900  0.500341054
     0.000312723  0.499666501  0.832602067
     0.000069381  0.833411877  0.166561031
     0.000310419  0.832601278  0.499668649
     0.999403126  0.833366079  0.833367136
     0.333389291  0.166561959  0.166556465
     0.333576195  0.166185380  0.499905107
     0.333483644  0.166450958  0.833482233
     0.333578283  0.499901465  0.166182718
     0.337643657  0.499776575  0.499777429
     0.333972097  0.499750706  0.834434139
     0.333485634  0.833484976  0.166455103
     0.333974449  0.834436704  0.499748632
     0.333291539  0.833539173  0.833540269
     0.666619971  0.166466300  0.166544239
     0.666351809  0.166296497  0.499750100
     0.666535501  0.166726027  0.833515159
     0.666352045  0.499798858  0.166331753
     0.666721321  0.499222276  0.499218039
     0.666074653  0.500507187  0.833988139
     0.666535595  0.833481069  0.166684621
     0.666074975  0.833954074  0.500552419
     0.667765258  0.832336999  0.832338050
     0.166658901  0.000021767  0.166506257
     0.166684080  0.000047224  0.499832498
     0.166619783  0.999942536  0.833478032
     0.166538647  0.332932974  0.166245929
     0.166242839  0.329290963  0.500312267
     0.166791276  0.332676760  0.833700993
     0.166887681  0.667097026  0.166001292
     0.169084822  0.671364041  0.499417504
     0.166644237  0.666940645  0.833742833
     0.500017014  0.000009882  0.166536705
     0.499982727  0.000183177  0.499960372
     0.500141814  0.999856149  0.833394945
     0.499932507  0.333131722  0.166615674
     0.500236353  0.332652164  0.499760729
     0.500070692  0.333153363  0.833530804
     0.499854375  0.666738412  0.166606384
     0.500302807  0.667055500  0.499805290
     0.499219209  0.666897256  0.834159602
     0.833383381  0.000083324  0.166618898
     0.833261080  0.999872361  0.499902104
     0.833292560  0.000708273  0.834039571
     0.833358883  0.332771902  0.166200156
     0.832776952  0.331531057  0.499162856
     0.833399497  0.333220413  0.833460492
     0.833359994  0.666731891  0.166699073
     0.830440594  0.668354820  0.499031143
     0.833252620  0.667170660  0.835340143
     0.166658713  0.166505031  0.000022830
     0.166534044  0.166247936  0.332934349
     0.166887787  0.166000596  0.667097849
     0.166684074  0.499831501  0.000047789
     0.166242542  0.500311126  0.329292300
     0.169084959  0.499416124  0.671365446
     0.166619881  0.833476888  0.999943405
     0.166795650  0.833703458  0.332677912
     0.166644311  0.833741609  0.666942121
     0.500018704  0.166535825  0.000007245
     0.499984088  0.166585769  0.333131774
     0.499853859  0.166603625  0.666740258
     0.499982642  0.499960054  0.000182596
     0.500238642  0.499762571  0.332652202
     0.500300455  0.499806682  0.667055310
     0.500140275  0.833394232  0.999858669
     0.500021674  0.833500100  0.333154621
     0.499218030  0.834158871  0.666896445
     0.833381814  0.166618246  0.000080381
     0.833313675  0.166167407  0.332771621
     0.833360667  0.166696314  0.666733704
     0.833261143  0.499901630  0.999871432
     0.832774767  0.499165160  0.331530699
     0.830442709  0.499033106  0.668354426
     0.833293948  0.834038958  0.000710728
     0.833442495  0.833426547  0.333221768
     0.833253786  0.835339390  0.667169711
     0.000197849  0.166680520  0.000055800
     0.000350214  0.166526490  0.333342548
     0.000267791  0.166638999  0.666457514
     0.000028405  0.499907357  0.999774601
     0.000975937  0.499850471  0.333425418
     0.007517173  0.496065437  0.667443483
     0.000464188  0.833272351  0.000412514
     0.000294271  0.833590706  0.332824348
     0.000332166  0.833050745  0.666327186
     0.333301023  0.166643035  0.000087593
     0.333053305  0.166878681  0.333354172
     0.333364502  0.166557784  0.666501543
     0.333489382  0.499781339  0.000286974
     0.332331739  0.499820602  0.334290976
     0.333069025  0.499738183  0.665508354
     0.333164397  0.833396915  0.000037305
     0.333395587  0.833358095  0.333203411
     0.333175167  0.833395545  0.666499854
     0.666545932  0.166749894  0.000021188
     0.666411275  0.166403512  0.333062963
     0.666501228  0.166764371  0.666710507
     0.666470271  0.499567198  0.000475929
     0.665437900  0.499897627  0.331775583
     0.665880870  0.499832633  0.666761402
     0.666451998  0.833541622  0.000490190
     0.666561321  0.833272693  0.333422608
     0.663242707  0.836517369  0.665829456
     0.000197585  0.000056551  0.166681321
     0.000028530  0.999775182  0.499908880
     0.000464526  0.000411200  0.833273212
     0.000361388  0.333341615  0.166530500
     0.000974428  0.333424714  0.499851464
     0.000281500  0.332823368  0.833594799
     0.000268958  0.666456310  0.166639660
     0.007518865  0.667442470  0.496066779
     0.000332449  0.666326369  0.833051684
     0.333301228  0.000093024  0.166643458
     0.333489256  0.000290883  0.499782930
     0.333164135  0.000034912  0.833397462
     0.333043001  0.333354103  0.166876355
     0.332333228  0.334290856  0.499820999
     0.333407356  0.333202249  0.833356787
     0.333363357  0.666499865  0.166559013
     0.333067636  0.665508182  0.499738931
     0.333174901  0.666500111  0.833396138
     0.666546044  0.999974984  0.166753225
     0.666470392  0.000441662  0.499569255
     0.666451960  0.000499447  0.833546182
     0.666410099  0.333053784  0.166473601
     0.665438071  0.331766387  0.499903914
     0.666562429  0.333422175  0.833328080
     0.666501130  0.666713551  0.166760604
     0.665880778  0.666752697  0.499841719
     0.663242619  0.665817037  0.836521977
     0.166710969  0.166794226  0.166794123
     0.166771254  0.165727578  0.499791449
     0.166865938  0.166548562  0.833399098
     0.166771480  0.499789886  0.165728393
     0.105119844  0.525967633  0.525968007
     0.167975012  0.499792730  0.834892106
     0.166866151  0.833398239  0.166550524
     0.167975284  0.834891148  0.499793089
     0.166638862  0.833256022  0.833257066
     0.499799574  0.166651769  0.166655093
     0.499443126  0.166660677  0.499808810
     0.499867691  0.166782289  0.833404588
     0.499440011  0.499807044  0.166661521
     0.500763006  0.499733269  0.499737695
     0.499306576  0.499531902  0.833371070
     0.499865332  0.833403391  0.166780642
     0.499303393  0.833369826  0.499535631
     0.499364271  0.833516470  0.833517517
     0.833402044  0.166336302  0.166340100
     0.833415528  0.166300164  0.499830519
     0.833370393  0.166872574  0.833362216
     0.833418233  0.499828714  0.166300997
     0.829454232  0.493537954  0.493542421
     0.833357032  0.499924806  0.833420951
     0.833372624  0.833361049  0.166870502
     0.833359972  0.833419778  0.499928614
     0.834207903  0.836538183  0.836539137
     0.166775356  0.000051873  0.000053072
     0.166817723  0.000057628  0.333008604
     0.166754968  0.000016856  0.666751570
     0.166817723  0.333007524  0.000056360
     0.166660948  0.334327453  0.334327043
     0.168427619  0.332186537  0.666049184
     0.166754955  0.666750508  0.000018235
     0.168428476  0.666049317  0.332187529
     0.167974681  0.666070003  0.666070944
     0.499873079  0.000080115  0.000079498
     0.499823793  0.000071446  0.333196609
     0.499053466  0.000878135  0.666608392
     0.499824826  0.333195777  0.000103475
     0.499488117  0.333266048  0.333274477
     0.499631571  0.333237729  0.666519952
     0.499053449  0.666607250  0.000876464
     0.499622592  0.666513297  0.333238647
     0.499139074  0.666572351  0.666574681
     0.833440215  0.000808953  0.000808263
     0.833377754  0.999932887  0.333219536
     0.833340804  0.000551891  0.666702172
     0.833376564  0.333218732  0.999968539
     0.833486936  0.331379148  0.331388500
     0.833463147  0.333375734  0.666519652
     0.833340794  0.666701045  0.000549919
     0.833471339  0.666512443  0.333376449
     0.823225724  0.676727682  0.676730149

  ion indices of the primitive-cell ions
   primitive index   ion index
                 1           1
                 2           2
                 3           3
                 4           4
                 5           5
                 6           6
                 7           7
                 8           8
                 9           9
                10          10
                11          11
                12          12
                13          13
                14          14
                15          15
                16          16
                17          17
                18          18
                19          19
                20          20
                21          21
                22          22
                23          23
                24          24
                25          25
                26          26
                27          27
                28          28
                29          29
                30          30
                31          31
                32          32
                33          33
                34          34
                35          35
                36          36
                37          37
                38          38
                39          39
                40          40
                41          41
                42          42
                43          43
                44          44
                45          45
                46          46
                47          47
                48          48
                49          49
                50          50
                51          51
                52          52
                53          53
                54          54
                55          55
                56          56
                57          57
                58          58
                59          59
                60          60
                61          61
                62          62
                63          63
                64          64
                65          65
                66          66
                67          67
                68          68
                69          69
                70          70
                71          71
                72          72
                73          73
                74          74
                75          75
                76          76
                77          77
                78          78
                79          79
                80          80
                81          81
                82          82
                83          83
                84          84
                85          85
                86          86
                87          87
                88          88
                89          89
                90          90
                91          91
                92          92
                93          93
                94          94
                95          95
                96          96
                97          97
                98          98
                99          99
               100         100
               101         101
               102         102
               103         103
               104         104
               105         105
               106         106
               107         107
               108         108
               109         109
               110         110
               111         111
               112         112
               113         113
               114         114
               115         115
               116         116
               117         117
               118         118
               119         119
               120         120
               121         121
               122         122
               123         123
               124         124
               125         125
               126         126
               127         127
               128         128
               129         129
               130         130
               131         131
               132         132
               133         133
               134         134
               135         135
               136         136
               137         137
               138         138
               139         139
               140         140
               141         141
               142         142
               143         143
               144         144
               145         145
               146         146
               147         147
               148         148
               149         149
               150         150
               151         151
               152         152
               153         153
               154         154
               155         155
               156         156
               157         157
               158         158
               159         159
               160         160
               161         161
               162         162
               163         163
               164         164
               165         165
               166         166
               167         167
               168         168
               169         169
               170         170
               171         171
               172         172
               173         173
               174         174
               175         175
               176         176
               177         177
               178         178
               179         179
               180         180
               181         181
               182         182
               183         183
               184         184
               185         185
               186         186
               187         187
               188         188
               189         189
               190         190
               191         191
               192         192
               193         193
               194         194
               195         195
               196         196
               197         197
               198         198
               199         199
               200         200
               201         201
               202         202
               203         203
               204         204
               205         205
               206         206
               207         207
               208         208
               209         209
               210         210
               211         211
               212         212
               213         213
               214         214
               215         215
               216         216

----------------------------------------------------------------------------------------

 
 
 KPOINTS: Gamma-point only                        

Automatic generation of k-mesh.
 Grid dimensions read from file:
 generate k-points for:    1    1    1

 Generating k-lattice:

  Cartesian coordinates                     Fractional coordinates (reciprocal lattice)
     0.082788993  0.000000000  0.000000000     1.000000000  0.000000000  0.000000000
     0.000000000  0.082788993  0.000000000     0.000000000  1.000000000  0.000000000
     0.000000000  0.000000000  0.082788993     0.000000000  0.000000000  1.000000000

  Length of vectors
     0.082788993  0.082788993  0.082788993

  Shift w.r.t. Gamma in fractional coordinates (k-lattice)
     0.000000000  0.000000000  0.000000000

 
 Subroutine IBZKPT returns following result:
 ===========================================
 
 Found      1 irreducible k-points:
 
 Following reciprocal coordinates:
            Coordinates               Weight
  0.000000  0.000000  0.000000      1.000000
 
 Following cartesian coordinates:
            Coordinates               Weight
  0.000000  0.000000  0.000000      1.000000
 


--------------------------------------------------------------------------------------------------------




 Dimension of arrays:
   k-points           NKPTS =      1   k-points in BZ     NKDIM =      1   number of bands    NBANDS=    757
   number of dos      NEDOS =    301   number of ions     NIONS =    216
   non local maximal  LDIM  =      4   non local SUM 2l+1 LMDIM =      8
   total plane-waves  NPLWV = 512000
   max r-space proj   IRMAX =      1   max aug-charges    IRDMAX=   3893
   dimension x,y,z NGX =    80 NGY =   80 NGZ =   80
   dimension x,y,z NGXF=   160 NGYF=  160 NGZF=  160
   support grid    NGXF=   160 NGYF=  160 NGZF=  160
   ions per type =             108 108
   NGX,Y,Z   is equivalent  to a cutoff of  11.01, 11.01, 11.01 a.u.
   NGXF,Y,Z  is equivalent  to a cutoff of  22.02, 22.02, 22.02 a.u.

 SYSTEM =  Si                                      
 POSCAR =  Li   F                                  

 Startparameter for this run:
   NWRITE =      2    write-flag & timer
   PREC   = accura    normal or accurate (medium, high low for compatibility)
   ISTART =      1    job   : 0-new  1-cont  2-samecut
   ICHARG =      2    charge: 1-file 2-atom 10-const
   ISPIN  =      2    spin polarized calculation?
   LNONCOLLINEAR =      F non collinear calculations
   LSORBIT =      F    spin-orbit coupling
   INIWAV =      1    electr: 0-lowe 1-rand  2-diag
   LASPH  =      F    aspherical Exc in radial PAW
 Electronic Relaxation 1
   ENCUT  =  400.0 eV  29.40 Ry    5.42 a.u.  19.70 19.70 19.70*2*pi/ulx,y,z
   ENINI  =  400.0     initial cutoff
   ENAUG  =  628.9 eV  augmentation charge cutoff
   NELM   =     20;   NELMIN=  2; NELMDL=  0     # of ELM steps 
   EDIFF  = 0.1E-09   stopping-criterion for ELM
   LREAL  =      F    real-space projection
   NLSPLINE    = F    spline interpolate recip. space projectors
   LCOMPAT=      F    compatible to vasp.4.4
   GGA_COMPAT  = T    GGA compatible to vasp.4.4-vasp.4.6
   LMAXPAW     = -100 max onsite density
   LMAXMIX     =    2 max onsite mixed and CHGCAR
   VOSKOWN=      0    Vosko Wilk Nusair interpolation
   ROPT   =    0.00000   0.00000
 Ionic relaxation
   EDIFFG = -.1E-01   stopping-criterion for IOM
   NSW    =    500    number of steps for IOM
   NBLOCK =      1;   KBLOCK =    500    inner block; outer block 
   IBRION =      3    ionic relax: 0-MD 1-quasi-New 2-CG
   NFREE  =      0    steps in history (QN), initial steepest desc. (CG)
   ISIF   =      0    stress and relaxation
   IWAVPR =     11    prediction:  0-non 1-charg 2-wave 3-comb
   ISYM   =      2    0-nonsym 1-usesym 2-fastsym
   LCORR  =      T    Harris-Foulkes like correction to forces

   POTIM  = 0.0000    time-step for ionic-motion
   TEIN   =    0.0    initial temperature
   TEBEG  =    0.0;   TEEND  =   0.0 temperature during run
   SMASS  =  -3.00    Nose mass-parameter (am)
   estimated Nose-frequenzy (Omega)   =  0.10E-29 period in steps = 0.00E+00 mass=  -0.333E-26a.u.
   SCALEE = 1.0000    scale energy and forces
   NPACO  =    256;   APACO  = 10.0  distance and # of slots for P.C.
   PSTRESS=    0.0 pullay stress

  Mass of Ions in am
   POMASS =  19.00  7.01
  Ionic Valenz
   ZVAL   =   7.00  3.00
  Atomic Wigner-Seitz radii
   RWIGS  =  -1.00 -1.00
  virtual crystal weights 
   VCA    =   1.00  1.00
   NELECT =    1080.0000    total number of electrons
   NUPDOWN=      -1.0000    fix difference up-down

 DOS related values:
   EMIN   =  10.00;   EMAX   =-10.00  energy-range for DOS
   EFERMI =   0.00;   METHOD = LEGACY      
   ISMEAR =     0;   SIGMA  =   0.01  broadening in eV -4-tet -1-fermi 0-gaus

 Electronic relaxation 2 (details)
   IALGO  =     38    algorithm
   LDIAG  =      T    sub-space diagonalisation (order eigenvalues)
   LSUBROT=      F    optimize rotation matrix (better conditioning)
   TURBO    =      0    0=normal 1=particle mesh
   IRESTART =      0    0=no restart 2=restart with 2 vectors
   NREBOOT  =      0    no. of reboots
   NMIN     =      0    reboot dimension
   EREF     =   0.00    reference energy to select bands
   IMIX   =      4    mixing-type and parameters
     AMIX     =   0.40;   BMIX     =  1.00
     AMIX_MAG =   1.60;   BMIX_MAG =  1.00
     AMIN     =   0.10
     WC   =   100.;   INIMIX=   1;  MIXPRE=   1;  MAXMIX= -45

 Intra band minimization:
   WEIMIN = 0.0010     energy-eigenvalue tresh-hold
   EBREAK =  0.33E-13  absolut break condition
   DEPER  =   0.30     relativ break condition  

   TIME   =   0.40     timestep for ELM

  volume/ion in A,a.u.               =       8.16        55.06
  Fermi-wavevector in a.u.,A,eV,Ry     =   1.390557  2.627771 26.308875  1.933648
  Thomas-Fermi vector in A             =   2.514480
 
 Write flags
   LWAVE        =      T    write WAVECAR
   LDOWNSAMPLE  =      F    k-point downsampling of WAVECAR
   LCHARG       =      T    write CHGCAR
   LVTOT        =      F    write LOCPOT, total local potential
   LVHAR        =      F    write LOCPOT, Hartree potential only
   LELF         =      F    write electronic localiz. function (ELF)
   LORBIT       =      0    0 simple, 1 ext, 2 COOP (PROOUT), +10 PAW based schemes


 Dipole corrections
   LMONO  =      F    monopole corrections only (constant potential shift)
   LDIPOL =      F    correct potential (dipole corrections)
   IDIPOL =      0    1-x, 2-y, 3-z, 4-all directions 
   EPSILON=  1.0000000 bulk dielectric constant

 Exchange correlation treatment:
   GGA     =    --    GGA type
   LEXCH   =     8    internal setting for exchange type
   LIBXC   =     F    Libxc                    
   VOSKOWN =     0    Vosko Wilk Nusair interpolation
   LHFCALC =     F    Hartree Fock is set to
   LHFONE  =     F    Hartree Fock one center treatment
   AEXX    =    0.0000 exact exchange contribution

 Linear response parameters
   LEPSILON=     F    determine dielectric tensor
   LRPA    =     F    only Hartree local field effects (RPA)
   LNABLA  =     F    use nabla operator in PAW spheres
   LVEL    =     F    velocity operator in full k-point grid
   CSHIFT  =0.1000    complex shift for real part using Kramers Kronig
   OMEGAMAX=  -1.0    maximum frequency
   DEG_THRESHOLD= 0.2000000E-02 threshold for treating states as degnerate
   RTIME   =   -0.100 relaxation time in fs
  (WPLASMAI=    0.000 imaginary part of plasma frequency in eV, 0.658/RTIME)
   DFIELD  = 0.0000000 0.0000000 0.0000000 field for delta impulse in time
 
  Optional k-point grid parameters
   LKPOINTS_OPT  =     F    use optional k-point grid
   KPOINTS_OPT_MODE=     1    mode for optional k-point grid
 
 Orbital magnetization related:
   ORBITALMAG=     F  switch on orbital magnetization
   LCHIMAG   =     F  perturbation theory with respect to B field
   DQ        =  0.001000  dq finite difference perturbation B field
   LLRAUG    =     F  two centre corrections for induced B field
   LBONE     =     F  B-component reconstruction in AE one-centre
   LVGVCALC  =     T  calculate vGv susceptibility
   LVGVAPPL  =     F  apply vGv susceptibility instead of pGv for G=0

 Random number generation:
   RANDOM_GENERATOR = DEFAULT
   PCG_SEED         = not used


--------------------------------------------------------------------------------------------------------


 quickmin algorithm: (dynamic with friction)
 charge density and potential will be updated during run
 spin polarized calculation
 Variant of blocked Davidson
 Davidson routine will perform the subspace rotation
 perform sub-space diagonalisation
    after iterative eigenvector-optimisation
 modified Broyden-mixing scheme, WC =      100.0
 initial mixing is a Kerker type mixing with AMIX =  0.4000 and BMIX =      1.0000
 Hartree-type preconditioning will be used
 using additional bands           217
 reciprocal scheme for non local part
 calculate Harris-corrections to forces 
   (improved forces if not selfconsistent)
 use gradient corrections 
 use of overlap-Matrix (Vanderbilt PP)
 Gauss-broadening in eV      SIGMA  =   0.01


--------------------------------------------------------------------------------------------------------


  energy-cutoff  :      400.00
  volume of cell :     1762.31
      direct lattice vectors                 reciprocal lattice vectors
    12.078900337  0.000000000  0.000000000     0.082788993  0.000000000  0.000000000
     0.000000000 12.078900337  0.000000000     0.000000000  0.082788993  0.000000000
     0.000000000  0.000000000 12.078900337     0.000000000  0.000000000  0.082788993

  length of vectors
    12.078900337 12.078900337 12.078900337     0.082788993  0.082788993  0.082788993


 
 old parameters found on file WAVECAR:
  energy-cutoff  :      400.00
  volume of cell :     1762.31
      direct lattice vectors                 reciprocal lattice vectors
    12.078900337  0.000000000  0.000000000     0.082788993  0.000000000  0.000000000
     0.000000000 12.078900337  0.000000000     0.000000000  0.082788993  0.000000000
     0.000000000  0.000000000 12.078900337     0.000000000  0.000000000  0.082788993

  length of vectors

 
 k-points in units of 2pi/SCALE and weight: Gamma-point only                        
   0.00000000  0.00000000  0.00000000       1.000
 
 k-points in reciprocal lattice and weights: Gamma-point only                        
   0.00000000  0.00000000  0.00000000       1.000
 
 position of ions in fractional coordinates (direct lattice) 
   0.00002966  0.99997505  0.99997653
   0.00005452  0.99985868  0.33323575
   0.00006023  0.99988103  0.66663192
   0.00005483  0.33323485  0.99985918
   0.99960487  0.33354135  0.33354409
   0.00076215  0.33291660  0.66648862
   0.00005991  0.66663116  0.99988276
   0.00076063  0.66648578  0.33291726
   0.00158088  0.66584501  0.66584562
   0.33339644  0.99997944  0.99998104
   0.33338513  0.00009155  0.33312488
   0.33324526  0.00018877  0.66672836
   0.33338471  0.33312416  0.00007757
   0.33318546  0.33323349  0.33323511
   0.33373856  0.33268230  0.66676066
   0.33324552  0.66672784  0.00019049
   0.33374008  0.66675896  0.33268309
   0.33364704  0.66689216  0.66689262
   0.66670408  0.99985092  0.99985174
   0.66656183  0.99996308  0.33321178
   0.66603579  0.00068325  0.66684863
   0.66656104  0.33320941  0.00010728
   0.66685576  0.33313325  0.33314743
   0.66636158  0.33304046  0.66644944
   0.66603577  0.66684572  0.00068514
   0.66636174  0.66643456  0.33304353
   0.66434613  0.66729454  0.66729620
   0.99989332  0.16658033  0.16658236
   0.99967242  0.16609405  0.49986747
   0.00007136  0.16656112  0.83341245
   0.99967015  0.49986840  0.16609467
   0.98567106  0.50034090  0.50034105
   0.00031272  0.49966650  0.83260207
   0.00006938  0.83341188  0.16656103
   0.00031042  0.83260128  0.49966865
   0.99940313  0.83336608  0.83336714
   0.33338929  0.16656196  0.16655647
   0.33357619  0.16618538  0.49990511
   0.33348364  0.16645096  0.83348223
   0.33357828  0.49990146  0.16618272
   0.33764366  0.49977657  0.49977743
   0.33397210  0.49975071  0.83443414
   0.33348563  0.83348498  0.16645510
   0.33397445  0.83443670  0.49974863
   0.33329154  0.83353917  0.83354027
   0.66661997  0.16646630  0.16654424
   0.66635181  0.16629650  0.49975010
   0.66653550  0.16672603  0.83351516
   0.66635205  0.49979886  0.16633175
   0.66672132  0.49922228  0.49921804
   0.66607465  0.50050719  0.83398814
   0.66653560  0.83348107  0.16668462
   0.66607497  0.83395407  0.50055242
   0.66776526  0.83233700  0.83233805
   0.16665890  0.00002177  0.16650626
   0.16668408  0.00004722  0.49983250
   0.16661978  0.99994254  0.83347803
   0.16653865  0.33293297  0.16624593
   0.16624284  0.32929096  0.50031227
   0.16679128  0.33267676  0.83370099
   0.16688768  0.66709703  0.16600129
   0.16908482  0.67136404  0.49941750
   0.16664424  0.66694064  0.83374283
   0.50001701  0.00000988  0.16653671
   0.49998273  0.00018318  0.49996037
   0.50014181  0.99985615  0.83339495
   0.49993251  0.33313172  0.16661567
   0.50023635  0.33265216  0.49976073
   0.50007069  0.33315336  0.83353080
   0.49985438  0.66673841  0.16660638
   0.50030281  0.66705550  0.49980529
   0.49921921  0.66689726  0.83415960
   0.83338338  0.00008332  0.16661890
   0.83326108  0.99987236  0.49990210
   0.83329256  0.00070827  0.83403957
   0.83335888  0.33277190  0.16620016
   0.83277695  0.33153106  0.49916286
   0.83339950  0.33322041  0.83346049
   0.83335999  0.66673189  0.16669907
   0.83044059  0.66835482  0.49903114
   0.83325262  0.66717066  0.83534014
   0.16665871  0.16650503  0.00002283
   0.16653404  0.16624794  0.33293435
   0.16688779  0.16600060  0.66709785
   0.16668407  0.49983150  0.00004779
   0.16624254  0.50031113  0.32929230
   0.16908496  0.49941612  0.67136545
   0.16661988  0.83347689  0.99994340
   0.16679565  0.83370346  0.33267791
   0.16664431  0.83374161  0.66694212
   0.50001870  0.16653583  0.00000725
   0.49998409  0.16658577  0.33313177
   0.49985386  0.16660363  0.66674026
   0.49998264  0.49996005  0.00018260
   0.50023864  0.49976257  0.33265220
   0.50030045  0.49980668  0.66705531
   0.50014027  0.83339423  0.99985867
   0.50002167  0.83350010  0.33315462
   0.49921803  0.83415887  0.66689644
   0.83338181  0.16661825  0.00008038
   0.83331368  0.16616741  0.33277162
   0.83336067  0.16669631  0.66673370
   0.83326114  0.49990163  0.99987143
   0.83277477  0.49916516  0.33153070
   0.83044271  0.49903311  0.66835443
   0.83329395  0.83403896  0.00071073
   0.83344250  0.83342655  0.33322177
   0.83325379  0.83533939  0.66716971
   0.00019785  0.16668052  0.00005580
   0.00035021  0.16652649  0.33334255
   0.00026779  0.16663900  0.66645751
   0.00002841  0.49990736  0.99977460
   0.00097594  0.49985047  0.33342542
   0.00751717  0.49606544  0.66744348
   0.00046419  0.83327235  0.00041251
   0.00029427  0.83359071  0.33282435
   0.00033217  0.83305075  0.66632719
   0.33330102  0.16664304  0.00008759
   0.33305331  0.16687868  0.33335417
   0.33336450  0.16655778  0.66650154
   0.33348938  0.49978134  0.00028697
   0.33233174  0.49982060  0.33429098
   0.33306903  0.49973818  0.66550835
   0.33316440  0.83339691  0.00003731
   0.33339559  0.83335809  0.33320341
   0.33317517  0.83339555  0.66649985
   0.66654593  0.16674989  0.00002119
   0.66641127  0.16640351  0.33306296
   0.66650123  0.16676437  0.66671051
   0.66647027  0.49956720  0.00047593
   0.66543790  0.49989763  0.33177558
   0.66588087  0.49983263  0.66676140
   0.66645200  0.83354162  0.00049019
   0.66656132  0.83327269  0.33342261
   0.66324271  0.83651737  0.66582946
   0.00019758  0.00005655  0.16668132
   0.00002853  0.99977518  0.49990888
   0.00046453  0.00041120  0.83327321
   0.00036139  0.33334161  0.16653050
   0.00097443  0.33342471  0.49985146
   0.00028150  0.33282337  0.83359480
   0.00026896  0.66645631  0.16663966
   0.00751887  0.66744247  0.49606678
   0.00033245  0.66632637  0.83305168
   0.33330123  0.00009302  0.16664346
   0.33348926  0.00029088  0.49978293
   0.33316414  0.00003491  0.83339746
   0.33304300  0.33335410  0.16687636
   0.33233323  0.33429086  0.49982100
   0.33340736  0.33320225  0.83335679
   0.33336336  0.66649987  0.16655901
   0.33306764  0.66550818  0.49973893
   0.33317490  0.66650011  0.83339614
   0.66654604  0.99997498  0.16675322
   0.66647039  0.00044166  0.49956926
   0.66645196  0.00049945  0.83354618
   0.66641010  0.33305378  0.16647360
   0.66543807  0.33176639  0.49990391
   0.66656243  0.33342218  0.83332808
   0.66650113  0.66671355  0.16676060
   0.66588078  0.66675270  0.49984172
   0.66324262  0.66581704  0.83652198
   0.16671097  0.16679423  0.16679412
   0.16677125  0.16572758  0.49979145
   0.16686594  0.16654856  0.83339910
   0.16677148  0.49978989  0.16572839
   0.10511984  0.52596763  0.52596801
   0.16797501  0.49979273  0.83489211
   0.16686615  0.83339824  0.16655052
   0.16797528  0.83489115  0.49979309
   0.16663886  0.83325602  0.83325707
   0.49979957  0.16665177  0.16665509
   0.49944313  0.16666068  0.49980881
   0.49986769  0.16678229  0.83340459
   0.49944001  0.49980704  0.16666152
   0.50076301  0.49973327  0.49973769
   0.49930658  0.49953190  0.83337107
   0.49986533  0.83340339  0.16678064
   0.49930339  0.83336983  0.49953563
   0.49936427  0.83351647  0.83351752
   0.83340204  0.16633630  0.16634010
   0.83341553  0.16630016  0.49983052
   0.83337039  0.16687257  0.83336222
   0.83341823  0.49982871  0.16630100
   0.82945423  0.49353795  0.49354242
   0.83335703  0.49992481  0.83342095
   0.83337262  0.83336105  0.16687050
   0.83335997  0.83341978  0.49992861
   0.83420790  0.83653818  0.83653914
   0.16677536  0.00005187  0.00005307
   0.16681772  0.00005763  0.33300860
   0.16675497  0.00001686  0.66675157
   0.16681772  0.33300752  0.00005636
   0.16666095  0.33432745  0.33432704
   0.16842762  0.33218654  0.66604918
   0.16675495  0.66675051  0.00001823
   0.16842848  0.66604932  0.33218753
   0.16797468  0.66607000  0.66607094
   0.49987308  0.00008011  0.00007950
   0.49982379  0.00007145  0.33319661
   0.49905347  0.00087813  0.66660839
   0.49982483  0.33319578  0.00010347
   0.49948812  0.33326605  0.33327448
   0.49963157  0.33323773  0.66651995
   0.49905345  0.66660725  0.00087646
   0.49962259  0.66651330  0.33323865
   0.49913907  0.66657235  0.66657468
   0.83344021  0.00080895  0.00080826
   0.83337775  0.99993289  0.33321954
   0.83334080  0.00055189  0.66670217
   0.83337656  0.33321873  0.99996854
   0.83348694  0.33137915  0.33138850
   0.83346315  0.33337573  0.66651965
   0.83334079  0.66670104  0.00054992
   0.83347134  0.66651244  0.33337645
   0.82322572  0.67672768  0.67673015
 
 position of ions in cartesian coordinates  (Angst):
   0.00035823 12.07859897 12.07861689
   0.00065852 12.07719332  4.02512142
   0.00072750 12.07746332  8.05218058
   0.00066227  4.02511051 12.07719933
  12.07412763  4.02881274  4.02884587
   0.00920599  4.02126647  8.05044967
   0.00072361  8.05217137 12.07748426
   0.00918760  8.05041532  4.02127446
   0.01909528  8.04267555  8.04268292
   4.02706236 12.07865197 12.07867129
   4.02692578  0.00110581  4.02378219
   4.02523623  0.00228012  8.05334544
   4.02692063  4.02377357  0.00093699
   4.02451396  4.02509416  4.02511366
   4.03119482  4.01843629  8.05373554
   4.02523948  8.05333908  0.00230096
   4.03121315  8.05371505  4.01844594
   4.03008931  8.05532398  8.05532948
   8.05305217 12.07709965 12.07710948
   8.05133395 12.07845439  4.02483193
   8.04497996  0.00825294  8.05479810
   8.05132433  4.02480328  0.00129585
   8.05488425  4.02388338  4.02405459
   8.04891511  4.02276254  8.04997640
   8.04497972  8.05476296  0.00827572
   8.04891707  8.04979668  4.02279965
   8.02457068  8.06018429  8.06020432
  12.07761181  2.01210716  2.01213177
  12.07494356  2.00623351  6.03784937
   0.00086192  2.01187520 10.06670597
  12.07491609  6.03786058  2.00624093
  11.90582256  6.04356787  6.04356973
   0.00377735  6.03542187 10.05691739
   0.00083805 10.06669900  2.01187410
   0.00374951 10.05690786  6.03544781
  12.07169075 10.06614581 10.06615859
   4.02697602  2.01188531  2.01181895
   4.02923361  2.00733665  6.03830397
   4.02811570  2.01054453 10.06754882
   4.02925883  6.03825997  2.00730449
   4.07836408  6.03675144  6.03676176
   4.03401568  6.03643897 10.07904681
   4.02813973 10.06758195  2.01059459
   4.03404409 10.07907779  6.03641392
   4.02579528 10.06823660 10.06824984
   8.05203620  2.01072984  2.01167126
   8.04879709  2.00867882  6.03643165
   8.05101589  2.01386706 10.06794653
   8.04879994  6.03702059  2.00910466
   8.05326039  6.03005612  6.03000494
   8.04544935  6.04557643 10.07365961
   8.05101703 10.06753476  2.01336692
   8.04545324 10.07324815  6.04612278
   8.06587000 10.05371566 10.05372835
   2.01305625  0.00026292  2.01121249
   2.01336039  0.00057042  6.03742693
   2.01258376 12.07820624 10.06749808
   2.01160372  4.02146422  2.00806801
   2.00803068  3.97747272  6.04322201
   2.01465520  4.01836943 10.07019120
   2.01581967  8.05779849  2.00511306
   2.04235872  8.10933934  6.03241426
   2.01287914  8.05590958 10.07069659
   6.03965568  0.00011936  2.01158026
   6.03924153  0.00221257  6.03897150
   6.04116312 12.07716277 10.06649448
   6.03863493  4.02386487  2.01253412
   6.04230505  4.01807234  6.03656004
   6.04030405  4.02412627 10.06813551
   6.03769118  8.05346683  2.01242191
   6.04310775  8.05729690  6.03709829
   6.03001907  8.05538549 10.07573069
  10.06635481  0.00100646  2.01257306
  10.06487754 12.07735860  6.03826769
  10.06525778  0.00855516 10.07428086
  10.06605890  4.01951864  2.00751512
  10.05902981  4.00453059  6.02933839
  10.06654947  4.02493615 10.06728622
  10.06607232  8.05338806  2.01354148
  10.03080916  8.07299127  6.02774744
  10.06477535  8.05868790 10.08999034
   2.01305399  2.01119768  0.00027576
   2.01154813  2.00809225  4.02148082
   2.01582095  2.00510466  8.05780843
   2.01336032  6.03741488  0.00057724
   2.00802709  6.04320822  3.97748887
   2.04236037  6.03239759  8.10935631
   2.01258494 10.06748426 12.07821673
   2.01470803 10.07022098  4.01838335
   2.01288003 10.07068180  8.05592740
   6.03967609  2.01156964  0.00008751
   6.03925796  2.01217290  4.02386550
   6.03768494  2.01238859  8.05348913
   6.03924050  6.03896766  0.00220556
   6.04233270  6.03658229  4.01807279
   6.04307933  6.03711510  8.05729461
   6.04114453 10.06648587 12.07719322
   6.03971197 10.06776464  4.02414146
   6.03000483 10.07572187  8.05537569
  10.06633587  2.01256518  0.00097091
  10.06551283  2.00711955  4.01951524
  10.06608044  2.01350816  8.05340996
  10.06487830  6.03826197 12.07734738
  10.05900341  6.02936622  4.00452628
  10.03083472  6.02777115  8.07298650
  10.06527455 10.07427345  0.00858482
  10.06706884 10.06687621  4.02495253
  10.06478944 10.08998124  8.05867645
   0.00238980  2.01331739  0.00067401
   0.00423020  2.01145687  4.02641142
   0.00323462  2.01281586  8.05007389
   0.00034310  6.03833114 12.07617777
   0.01178825  6.03764402  4.02741239
   0.09079919  5.99192498  8.06198331
   0.00560689 10.06501368  0.00498272
   0.00355446 10.06885906  4.02015213
   0.00401220 10.06233693  8.04849967
   4.02590984  2.01286461  0.00105803
   4.02291768  2.01571096  4.02655182
   4.02667660  2.01183487  8.05060571
   4.02818501  6.03680898  0.00346634
   4.01420195  6.03728324  4.03786738
   4.02310756  6.03628771  8.03860908
   4.02425955 10.06651828  0.00045060
   4.02705206 10.06604937  4.02473079
   4.02438963 10.06650173  8.05058531
   8.05114188  2.01415535  0.00025593
   8.04951537  2.00997143  4.02303433
   8.05060191  2.01433022  8.05312976
   8.05022798  6.03422240  0.00574870
   8.03775808  6.03821362  4.00748421
   8.04310867  6.03742856  8.05374452
   8.05000726 10.06826618  0.00592095
   8.05132777 10.06501781  4.02737845
   8.01124256 10.10420993  8.04248763
   0.00238661  0.00068308  2.01332707
   0.00034461 12.07618478  6.03834954
   0.00561097  0.00496685 10.06502408
   0.00436518  4.02640014  2.01150531
   0.01177002  4.02740389  6.03765602
   0.00340020  4.02014030 10.06890850
   0.00324871  8.05005935  2.01282384
   0.09081962  8.06197108  5.99194119
   0.00401562  8.04848980 10.06234827
   4.02591232  0.00112362  2.01286972
   4.02818349  0.00351355  6.03682821
   4.02425639  0.00042170 10.06652489
   4.02279322  4.02655098  2.01568286
   4.01421994  4.03786594  6.03728804
   4.02719422  4.02471676 10.06603358
   4.02666276  8.05058545  2.01184971
   4.02309078  8.03860700  6.03629674
   4.02438642  8.05058842 10.06650889
   8.05114324 12.07859818  2.01419558
   8.05022945  0.00533479  6.03424725
   8.05000681  0.00603277 10.06832126
   8.04950117  4.02292346  2.01081804
   8.03776014  4.00737313  6.03828956
   8.05134115  4.02737323 10.06568683
   8.05060073  8.05316653  2.01428471
   8.04310756  8.05363938  6.03753831
   8.01124149  8.04233764 10.10426558
   2.01368518  2.01469084  2.01468959
   2.01441335  2.00180690  6.03693110
   2.01555703  2.01172348 10.06654464
   2.01441609  6.03691223  2.00181674
   1.26973212  6.35311062  6.35311514
   2.02895343  6.03694657 10.08457854
   2.01555960 10.06653427  2.01174718
   2.02895671 10.08456697  6.03695091
   2.01281421 10.06481645 10.06482906
   6.03702924  2.01297011  2.01301026
   6.03272374  2.01307771  6.03714080
   6.03785202  2.01454665 10.06661095
   6.03268612  6.03711947  2.01308790
   6.04866645  6.03622836  6.03628181
   6.03107437  6.03379606 10.06620610
   6.03782352 10.06659650  2.01452675
   6.03103592 10.06619107  6.03384111
   6.03177126 10.06796237 10.06797502
  10.06658023  2.00915962  2.00920549
  10.06674310  2.00872311  6.03740302
  10.06619793  2.01563719 10.06609915
  10.06677577  6.03738122  2.00873317
  10.01889500  5.96139576  5.96144972
  10.06603653  6.03854191 10.06680860
  10.06622487 10.06608505  2.01561216
  10.06607205 10.06679444  6.03858791
  10.07631412 10.10446135 10.10447286
   2.01446291  0.00062657  0.00064106
   2.01497465  0.00069609  4.02237773
   2.01421665  0.00020360  8.05362576
   2.01497465  4.02236470  0.00068076
   2.01308099  4.03830798  4.03830304
   2.03442042  4.01244807  8.04514172
   2.01421648  8.05361293  0.00022025
   2.03443077  8.04514331  4.01246006
   2.02894943  8.04539318  8.04540455
   6.03791710  0.00096770  0.00096025
   6.03732179  0.00086299  4.02464864
   6.02801707  0.01060690  8.05189633
   6.03733425  4.02463858  0.00124986
   6.03326718  4.02548738  4.02558919
   6.03499995  4.02514532  8.05082807
   6.02801687  8.05188253  0.01058672
   6.03489150  8.05074769  4.02515641
   6.02905113  8.05146100  8.05148914
  10.06704129  0.00977127  0.00976292
  10.06628683 12.07808969  4.02492557
  10.06584052  0.00666624  8.05302909
  10.06627246  4.02491585 12.07852032
  10.06760564  4.00269571  4.00280866
  10.06731829  4.02681226  8.05082445
  10.06584040  8.05301547  0.00664242
  10.06741724  8.05073738  4.02682090
   9.94366147  8.17412623  8.17415603
 


--------------------------------------------------------------------------------------------------------


 k-point   1 :   0.0000 0.0000 0.0000  plane waves:   31919

 maximum and minimum number of plane-waves per node :     31919    31919

 maximum number of plane-waves:     31919
 maximum index in each direction: 
   IXMAX=   19   IYMAX=   19   IZMAX=   19
   IXMIN=  -19   IYMIN=  -19   IZMIN=  -19


 serial   3D FFT for wavefunctions
 parallel 3D FFT for charge:
    minimum data exchange during FFTs selected (reduces bandwidth)


 total amount of memory used by VASP MPI-rank0  1466161. kBytes
=======================================================================

   base      :      30000. kBytes
   nonl-proj :     114397. kBytes
   fftplans  :     141100. kBytes
   grid      :     372121. kBytes
   one-center:       1327. kBytes
   wavefun   :     807216. kBytes
 
     INWAV:  cpu time      0.4675: real time      1.0951
 Broyden mixing: mesh for mixing (old mesh)
   NGX = 39   NGY = 39   NGZ = 39
  (NGX  =160   NGY  =160   NGZ  =160)
  gives a total of  59319 points

 initial charge density was supplied:
 charge density of overlapping atoms calculated
 number of electron    1080.0000000 magnetization     216.0000000
 keeping initial charge density in first step


--------------------------------------------------------------------------------------------------------


 Maximum index for augmentation-charges          3687 (set IRDMAX)


--------------------------------------------------------------------------------------------------------


 First call to EWALD:  gamma=   0.147
 Maximum number of real-space cells 3x 3x 3
 Maximum number of reciprocal cells 3x 3x 3

    FEWALD:  cpu time      0.2521: real time      0.2529


--------------------------------------- Ionic step        1  -------------------------------------------




--------------------------------------- Iteration      1(   1)  ---------------------------------------


    POTLOK:  cpu time      0.1306: real time      0.1498
    SETDIJ:  cpu time      0.7050: real time      0.7075
     EDDAV:  cpu time      9.4249: real time      9.4617
       DOS:  cpu time      0.0003: real time      0.0003
    CHARGE:  cpu time      0.4764: real time      0.4783
    MIXING:  cpu time      0.0628: real time      0.0630
    --------------------------------------------
      LOOP:  cpu time     10.8001: real time     10.8607

 eigenvalue-minimisations  :  3028
 total energy-change (2. order) :-0.9428215E+03  (-0.2148393E+03)
 number of electron    1080.0000030 magnetization     142.4005295
 augmentation part      258.4599548 magnetization     143.9282230

 Broyden mixing:
  rms(total) = 0.13415E+02    rms(broyden)= 0.13403E+02
  rms(prec ) = 0.13752E+02
  weight for this iteration     100.00

 Free energy of the ion-electron system (eV)
  ---------------------------------------------------
  alpha Z        PSCENC =      2167.32059008
  Ewald energy   TEWEN  =    -60153.64993366
  -Hartree energ DENC   =    -23009.48711090
  -exchange      EXHF   =         0.00000000
  -V(xc)+E(xc)   XCENC  =      5435.51664571
  PAW double counting   =     53780.49107149   -55988.61141440
  entropy T*S    EENTRO =        -0.00000000
  eigenvalues    EBANDS =    -16269.25914778
  atomic energy  EATOM  =     93094.85783989
  Solvation  Ediel_sol  =         0.00000000
  ---------------------------------------------------
  free energy    TOTEN  =      -942.82145956 eV

  energy without entropy =     -942.82145956  energy(sigma->0) =     -942.82145956


--------------------------------------------------------------------------------------------------------




--------------------------------------- Iteration      1(   2)  ---------------------------------------


    POTLOK:  cpu time      0.0998: real time      0.1008
    SETDIJ:  cpu time      0.7057: real time      0.7081
     EDDAV:  cpu time      9.4560: real time      9.4902
       DOS:  cpu time      0.0003: real time      0.0003
    CHARGE:  cpu time      0.4510: real time      0.4528
    MIXING:  cpu time      0.0644: real time      0.0646
    --------------------------------------------
      LOOP:  cpu time     10.7772: real time     10.8168

 eigenvalue-minimisations  :  3148
 total energy-change (2. order) : 0.4648757E+03  (-0.7592072E+02)
 number of electron    1080.0000017 magnetization     104.0685367
 augmentation part      256.9512921 magnetization      90.0295441

 Broyden mixing:
  rms(total) = 0.64138E+01    rms(broyden)= 0.64105E+01
  rms(prec ) = 0.66565E+01
  weight for this iteration     100.00

 eigenvalues of (default mixing * dielectric matrix)
  average eigenvalue GAMMA=   0.7403
  0.7403

 Free energy of the ion-electron system (eV)
  ---------------------------------------------------
  alpha Z        PSCENC =      2167.32059008
[...]
      4.02653      2.01960      8.04285        -0.001720     -0.000517      0.003725
      4.03461      6.03628      0.00598        -0.005881      0.000447      0.000780
      3.96296      6.03465      4.08192         0.005608      0.010497     -0.006095
      3.98094      6.03531      8.01021         0.049708      0.000417      0.042399
      4.03308     10.06638      0.00459        -0.001700      0.000541      0.000863
      4.01846     10.05921      4.02953         0.000195      0.005282     -0.001059
      4.03867     10.07888      8.04894         0.000156      0.003649      0.000177
      8.04291      2.01155     -0.00158         0.001303     -0.001090      0.000490
      8.03988      2.01209      4.02336         0.000001      0.000548      0.000030
      8.03900      2.01028      8.04822        -0.000702     -0.001472      0.002305
      8.03523      6.03678      0.00406        -0.002004     -0.000424      0.001876
      8.03821      6.03186      4.01613        -0.000440      0.003896      0.006276
      8.05496      6.03678      8.05180        -0.001620     -0.001545      0.006154
      8.04416     10.06508     -0.00044         0.001713     -0.000406     -0.002099
      8.04503     10.06207      4.02425        -0.003301      0.003741     -0.003018
      8.04712     10.06181      8.05261         0.004668     -0.006593     -0.001994
     -0.00068      0.01542      1.99628        -0.001898     -0.008986      0.008001
     -0.00767     12.11516      6.02974        -0.005197     -0.018364      0.004093
     -0.00182      0.00454     10.07643        -0.003702     -0.003782     -0.010154
      0.00503      4.01030      2.01210        -0.006339      0.007435      0.002061
      0.02127      3.99295      6.00665        -0.050721      0.010910      0.023353
      0.00175      3.95105     10.13776        -0.006737      0.057691     -0.052021
      0.00087      8.05410      1.99378        -0.009987      0.002536      0.020467
     -0.11272      8.32494      5.84788        -0.056806     -0.209483      0.264322
     -0.00421      8.06518     10.09976        -0.006516     -0.020972     -0.032813
      4.03043      0.00088      2.01462        -0.002155      0.000131      0.000111
      4.03461      0.00593      6.03633        -0.005880      0.000780      0.000448
      4.03308      0.00453     10.06643        -0.001700      0.000864      0.000541
      4.02227      4.03116      2.02244        -0.001852     -0.000208     -0.000587
      3.96296      4.08186      6.03470         0.005607     -0.006096      0.010499
      4.01846      4.02948     10.05926         0.000194     -0.001057      0.005281
      4.02653      8.04280      2.01965        -0.001720      0.003725     -0.000518
      3.98094      8.01015      6.03537         0.049709      0.042403      0.000416
      4.03867      8.04889     10.07893         0.000156      0.000176      0.003649
      8.04291     12.07727      2.01160         0.001304      0.000490     -0.001091
      8.03523      0.00400      6.03683        -0.002004      0.001879     -0.000426
      8.04416     -0.00049     10.06513         0.001714     -0.002098     -0.000408
      8.03988      4.02330      2.01214        -0.000000      0.000031      0.000548
      8.03821      4.01608      6.03191        -0.000438      0.006279      0.003896
      8.04503      4.02420     10.06212        -0.003302     -0.003021      0.003745
      8.03900      8.04817      2.01033        -0.000701      0.002304     -0.001473
      8.05496      8.05176      6.03683        -0.001622      0.006152     -0.001545
      8.04712      8.05256     10.06186         0.004668     -0.001989     -0.006595
      2.02151      2.02005      2.02010        -0.004200      0.000002      0.000003
      2.02226      2.00667      6.02967        -0.012506      0.013400      0.006282
      2.02270      2.00962     10.06809        -0.007554      0.001104      0.004930
      2.02226      6.02962      2.00672        -0.012505      0.006279      0.013396
      1.25852      6.61746      6.61752         0.894312     -0.504379     -0.504373
      2.01957      6.03316     10.12200        -0.016617     -0.012015     -0.002625
      2.02270     10.06804      2.00967        -0.007554      0.004929      0.001101
      2.01958     10.12194      6.03321        -0.016617     -0.002627     -0.012014
      2.01930     10.09494     10.09499        -0.003278      0.006836      0.006835
      6.03376      2.01377      2.01382        -0.000120     -0.000122     -0.000123
      6.02504      2.02284      6.03580        -0.001994      0.000114      0.001054
      6.03496      2.01734     10.06152        -0.000615     -0.001909      0.001712
      6.02504      6.03574      2.02289        -0.001995      0.001055      0.000113
      6.03160      6.03912      6.03917        -0.001467      0.001071      0.001072
      6.02899      6.03677     10.05243         0.003374     -0.000176      0.010117
      6.03496     10.06147      2.01739        -0.000614      0.001712     -0.001909
      6.02899     10.05238      6.03681         0.003374      0.010118     -0.000175
      6.03849     10.06413     10.06418         0.000912      0.000247      0.000246
     10.05488      2.01015      2.01020         0.001428      0.000406      0.000406
     10.05164      2.00828      6.02912        -0.003135      0.001239      0.003724
     10.05390      2.00350     10.06941         0.002445      0.003026      0.001349
     10.05164      6.02907      2.00833        -0.003135      0.003722      0.001238
     10.03728      6.01070      6.01074        -0.022913      0.041082      0.041080
     10.02942      6.03702     10.11279        -0.009136     -0.013136     -0.006693
     10.05390     10.06936      2.00355         0.002444      0.001347      0.003027
     10.02942     10.11274      6.03707        -0.009133     -0.006694     -0.013137
     10.05837     10.07134     10.07139         0.000354     -0.010331     -0.010332
      2.02201      0.00640      0.00645        -0.004567      0.001571      0.001570
      2.02225      0.01266      4.01557        -0.007278     -0.000835      0.001450
      2.02047      0.01532      8.05983        -0.009450     -0.000159     -0.002031
      2.02225      4.01552      0.01271        -0.007279      0.001450     -0.000833
      2.00931      4.07479      4.07484        -0.007691     -0.007515     -0.007514
      2.01046      4.00981      8.01230        -0.014213     -0.009919      0.053812
      2.02047      8.05979      0.01537        -0.009449     -0.002031     -0.000160
      2.01046      8.01224      4.00987        -0.014211      0.053811     -0.009918
      2.04561      8.17373      8.17378        -0.049729      0.027948      0.027950
      6.03766     -0.00038     -0.00033        -0.000238      0.000127      0.000126
      6.03352     -0.00367      4.02631        -0.001091      0.002319     -0.000651
      6.03776      0.00125      8.04960         0.000367     -0.000471      0.000736
      6.03353      4.02626     -0.00362        -0.001092     -0.000650      0.002319
      6.02331      4.03281      4.03286        -0.001352      0.000181      0.000181
      6.02501      4.03690      8.04092         0.003056     -0.006855      0.004212
      6.03776      8.04955      0.00130         0.000368      0.000737     -0.000472
      6.02501      8.04087      4.03694         0.003056      0.004209     -0.006854
      6.03163      8.04096      8.04101         0.009540      0.006502      0.006503
     10.05471      0.00018      0.00023         0.002090     -0.002332     -0.002331
     10.05266     12.08881      4.01719         0.002532     -0.003031     -0.001230
     10.05551      0.00643      8.05527         0.003376     -0.005258     -0.001427
     10.05266      4.01714     12.08887         0.002532     -0.001230     -0.003029
     10.05979      4.01674      4.01679        -0.010311      0.007426      0.007425
     10.04262      3.98568      8.03920        -0.006549      0.014903      0.016298
     10.05552      8.05522      0.00649         0.003376     -0.001424     -0.005259
     10.04262      8.03915      3.98573        -0.006550      0.016294      0.014905
     10.08702      8.04950      8.04955         0.007873     -0.032118     -0.032122
 -----------------------------------------------------------------------------------
    total drift:                               -0.015479     -0.003573     -0.003637


--------------------------------------------------------------------------------------------------------



  FREE ENERGIE OF THE ION-ELECTRON SYSTEM (eV)
  ---------------------------------------------------
  free  energy   TOTEN  =     -1055.72717502 eV

  energy  without entropy=    -1055.72717502  energy(sigma->0) =    -1055.72717502
 
 d Force =-0.1245823E-01[-0.134E-01,-0.115E-01]  d Energy =-0.1246119E-01 0.297E-05
 d Force =-0.5103112E+00[-0.534E+00,-0.486E+00]  d Ewald  =-0.5103085E+00-0.279E-05


--------------------------------------------------------------------------------------------------------


    POTLOK:  cpu time      0.8423: real time      0.8454


--------------------------------------------------------------------------------------------------------


 NEB: the previous image is higher in energy:  F
 NEB: the next image is higher in energy    :  T
 NEB: only next energy greater

 NEB: Tangent
 ----------------------------------------------
     -0.00027      0.00300      0.00300
      0.00031      0.00528     -0.00784
      0.00184      0.00281      0.00444
      0.00031     -0.00784      0.00528
      0.00399     -0.02302     -0.02302
      0.00809     -0.06109      0.00647
      0.00184      0.00444      0.00281
      0.00809      0.00647     -0.06109
     -0.01776      0.08452      0.08452
      0.00207     -0.00079     -0.00079
      0.00251     -0.00527      0.00003
      0.00478     -0.00319     -0.00008
      0.00251      0.00003     -0.00527
      0.00877     -0.00544     -0.00544
     -0.00376      0.00583     -0.00087
      0.00478     -0.00008     -0.00320
     -0.00377     -0.00087      0.00583
     -0.00039     -0.00569     -0.00569
     -0.00057     -0.00005     -0.00004
      0.00199     -0.00457      0.00125
     -0.00279      0.00021     -0.00023
      0.00199      0.00125     -0.00457
      0.00098     -0.00090     -0.00090
      0.01281      0.00961     -0.00011
     -0.00279     -0.00023      0.00021
      0.01281     -0.00011      0.00961
      0.01556     -0.00430     -0.00430
     -0.00055     -0.00525     -0.00525
     -0.00034     -0.00809     -0.00428
      0.00045     -0.00971      0.00819
     -0.00034     -0.00428     -0.00809
      0.00700     -0.08711     -0.08711
      0.00680     -0.00369      0.04785
      0.00045      0.00819     -0.00971
      0.00680      0.04785     -0.00369
     -0.00008      0.01741      0.01741
      0.00338     -0.00263     -0.00263
      0.01167     -0.00892     -0.00010
      0.00210      0.00135     -0.00086
      0.01167     -0.00010     -0.00892
      0.03430     -0.00934     -0.00934
     -0.00629      0.00039     -0.01134
      0.00210     -0.00086      0.00135
     -0.00629     -0.01134      0.00039
      0.00289     -0.00177     -0.00177
      0.00005     -0.00113     -0.00113
     -0.00088     -0.00342      0.00080
      0.00137      0.00308     -0.00131
     -0.00088      0.00080     -0.00342
      0.01803      0.00458      0.00458
      0.01371      0.00160     -0.01165
      0.00137     -0.00131      0.00308
      0.01371     -0.01165      0.00160
     -0.00143     -0.00035     -0.00035
      0.00199     -0.00387     -0.00105
      0.00675     -0.00065      0.00002
      0.00365     -0.00167     -0.00007
      0.00514     -0.00755     -0.01079
      0.02005     -0.05179     -0.01323
     -0.00599      0.00672     -0.00695
      0.00764      0.00304     -0.00853
     -0.09087     -0.02887      0.02795
      0.00685     -0.00099     -0.00171
      0.00162     -0.00151      0.00003
      0.00367     -0.00725      0.00024
      0.00099     -0.00001     -0.00040
      0.00319     -0.00100     -0.00298
      0.00904     -0.00262      0.00095
      0.00284      0.00209     -0.00283
      0.00271      0.00102      0.00292
      0.00641     -0.00025      0.00093
      0.00136     -0.00123     -0.00376
     -0.00149     -0.00199      0.00114
     -0.00160      0.00108     -0.00041
     -0.00295      0.00245      0.00226
     -0.00237     -0.00272     -0.00398
     -0.00681     -0.01391     -0.00125
      0.01277      0.00561     -0.00676
     -0.00260      0.00154     -0.00512
      0.09535     -0.00827      0.00825
     -0.00493      0.00419      0.01269
      0.00199     -0.00105     -0.00387
      0.00514     -0.01079     -0.00755
      0.00764     -0.00853      0.00304
      0.00675      0.00002     -0.00065
      0.02005     -0.01322     -0.05179
     -0.09087      0.02795     -0.02887
      0.00365     -0.00007     -0.00167
     -0.00599     -0.00694      0.00672
      0.00685     -0.00171     -0.00099
      0.00162      0.00003     -0.00151
      0.00319     -0.00298     -0.00100
      0.00271      0.00292      0.00102
      0.00367      0.00023     -0.00724
      0.00904      0.00096     -0.00262
      0.00641      0.00093     -0.00025
      0.00099     -0.00040     -0.00001
      0.00284     -0.00283      0.00209
      0.00136     -0.00376     -0.00123
     -0.00149      0.00114     -0.00200
     -0.00237     -0.00398     -0.00272
     -0.00260     -0.00512      0.00154
     -0.00160     -0.00041      0.00108
     -0.00681     -0.00125     -0.01391
      0.09535      0.00825     -0.00827
     -0.00295      0.00226      0.00245
      0.01276     -0.00676      0.00561
     -0.00493      0.01269      0.00419
      0.00129     -0.00621      0.00685
      0.00465     -0.00065     -0.00482
      0.00676     -0.01603     -0.00205
      0.00350     -0.00290      0.01464
      0.03696     -0.01733     -0.00841
      0.04159     -0.19949      0.15740
      0.00213      0.00710      0.00265
      0.00468      0.03951     -0.04399
      0.00476      0.02528      0.01577
      0.00138     -0.00015     -0.00015
      0.00109      0.00038      0.00003
      0.00121      0.00020     -0.00271
      0.00457     -0.00036     -0.00047
     -0.00432     -0.00763      0.00466
     -0.03548     -0.00013     -0.03140
      0.00110     -0.00020     -0.00051
     -0.00004     -0.00357      0.00055
      0.00026     -0.00247      0.00025
     -0.00068      0.00047      0.00005
      0.00018      0.00012     -0.00006
      0.00010      0.00105     -0.00127
      0.00143      0.00000     -0.00137
      0.00059     -0.00264     -0.00475
      0.00176      0.00082     -0.00470
     -0.00148      0.00029      0.00103
      0.00285     -0.00231      0.00200
     -0.00340      0.00461      0.00089
      0.00129      0.00685     -0.00621
      0.00350      0.01464     -0.00290
      0.00213      0.00265      0.00710
      0.00465     -0.00482     -0.00065
      0.03696     -0.00842     -0.01733
      0.00468     -0.04399      0.03950
      0.00676     -0.00205     -0.01603
      0.04158      0.15740     -0.19949
      0.00476      0.01577      0.02528
      0.00138     -0.00015     -0.00015
      0.00457     -0.00047     -0.00036
      0.00110     -0.00051     -0.00020
      0.00109      0.00003      0.00038
     -0.00432      0.00466     -0.00763
     -0.00004      0.00055     -0.00357
      0.00121     -0.00271      0.00020
     -0.03548     -0.03140     -0.00013
      0.00026      0.00025     -0.00247
     -0.00068      0.00005      0.00047
      0.00143     -0.00138      0.00000
     -0.00148      0.00103      0.00029
      0.00018     -0.00006      0.00012
      0.00059     -0.00475     -0.00264
      0.00285      0.00200     -0.00231
      0.00010     -0.00127      0.00105
      0.00176     -0.00470      0.00082
     -0.00340      0.00088      0.00461
      0.00292      0.00011      0.00011
      0.00902     -0.00982     -0.00443
      0.00521     -0.00130     -0.00411
      0.00902     -0.00442     -0.00982
     -0.67538      0.37624      0.37624
      0.01251      0.00907      0.00254
      0.00521     -0.00411     -0.00130
      0.01251      0.00254      0.00907
      0.00213     -0.00466     -0.00466
      0.00046      0.00021      0.00021
      0.00144     -0.00039     -0.00078
      0.00058      0.00133     -0.00061
      0.00144     -0.00078     -0.00038
      0.00225     -0.00092     -0.00092
     -0.00208     -0.00029     -0.00697
      0.00058     -0.00061      0.00133
     -0.00208     -0.00697     -0.00029
     -0.00036     -0.00024     -0.00024
     -0.00044     -0.00012     -0.00012
      0.00178     -0.00062     -0.00256
     -0.00225     -0.00287     -0.00091
      0.00177     -0.00255     -0.00062
      0.01584     -0.03091     -0.03091
      0.00681      0.00943      0.00509
     -0.00225     -0.00091     -0.00287
      0.00681      0.00509      0.00943
     -0.00057      0.00786      0.00786
      0.00270     -0.00147     -0.00147
      0.00533      0.00098     -0.00074
      0.00709      0.00050      0.00140
      0.00533     -0.00074      0.00097
      0.00503      0.00606      0.00606
      0.01051      0.00711     -0.04033
      0.00709      0.00140      0.00050
      0.01051     -0.04033      0.00711
      0.03739     -0.02009     -0.02010
      0.00012      0.00020      0.00020
      0.00108     -0.00122      0.00008
     -0.00031      0.00041     -0.00040
      0.00108      0.00008     -0.00122
      0.00081      0.00005      0.00005
     -0.00208      0.00485     -0.00252
     -0.00031     -0.00040      0.00041
     -0.00208     -0.00252      0.00485
     -0.00580     -0.00466     -0.00466
     -0.00162      0.00143      0.00143
     -0.00197      0.00303      0.00082
     -0.00329      0.00381      0.00092
     -0.00197      0.00082      0.00302
      0.00762     -0.00532     -0.00532
      0.00444     -0.01179     -0.01225
     -0.00329      0.00092      0.00381
      0.00444     -0.01224     -0.01179
     -0.00573      0.02401      0.02401

 NEB: forces: par spring, perp REAL, dneb     0.003763    0.016804    0.000000
 NEB: distance to prev, next image, angle between     0.683401    0.684153  159.363189
 NEB: projections on to tangent (spring, REAL)     0.003763   -1.331785

 stress matrix after NEB project (eV)
      0.00000      0.00000      0.00000
      0.00000      0.00000      0.00000
      0.00000      0.00000      0.00000
  FORCES: max atom, RMS     0.008147    0.001172
  FORCE total and by dimension    0.017220    0.007696
  Stress total and by dimension    0.000000    0.000000
 OPT: skip step - force has converged


--------------------------------------------------------------------------------------------------------


  
 reached required accuracy - stopping structural energy minimisation
 writing wavefunctions
     LOOP+:  cpu time    266.8686: real time    268.2836
    4ORBIT:  cpu time      0.0000: real time      0.0000

 total amount of memory used by VASP MPI-rank0  1466161. kBytes
=======================================================================

   base      :      30000. kBytes
   nonl-proj :     114397. kBytes
   fftplans  :     141100. kBytes
   grid      :     372121. kBytes
   one-center:       1327. kBytes
   wavefun   :     807216. kBytes
 
  
  
 General timing and accounting informations for this job:
 ========================================================
  
                  Total CPU time used (sec):     7150.598
                            User time (sec):     7073.983
                          System time (sec):       76.615
                         Elapsed time (sec):     7182.270
  
                   Maximum memory used (kb):     3138952.
                   Average memory used (kb):          N/A
  
                          Minor page faults:      1010352
                          Major page faults:            0
                 Voluntary context switches:       285713
