 vasp.6.4.2 20Jul23 (build May 29 2025 16:14:50) complex                         
 executed on              LinuxNV date 2025.06.09  19:45:40
 running    2 mpi-ranks, with    1 threads/rank, on    1 nodes
 distrk:  each k-point on    2 cores,    1 groups
 distr:  one band on NCORE=   1 cores,    2 groups
 OpenACC runtime initialized ...    2 GPUs detected


--------------------------------------------------------------------------------------------------------


 INCAR:
   SYSTEM = Si
   ISTART = 1
   ICHARG = 2
   NCORE = 8
   ISPIN = 2
   NELM = 20
   ENCUT = 400
   PREC = Accurate
   ISMEAR = 0
   SIGMA = 0.01
   EDIFF = 1E-10
   NELECT = 1080
   IBRION = 3
   NSW = 500
   POTIM = 0.1
   ISIF = 0
   IOPT = 1
   EDIFFG = -0.010
   LREAL = .FALSE.
   LWAVE = .FALSE.
   LCHARG = .FALSE.

 POTCAR:    PAW_PBE Li_sv 10Sep2004               
 POTCAR:    PAW_PBE F 08Apr2002                   
 -----------------------------------------------------------------------------
|                                                                             |
|           W    W    AA    RRRRR   N    N  II  N    N   GGGG   !!!           |
|           W    W   A  A   R    R  NN   N  II  NN   N  G    G  !!!           |
|           W    W  A    A  R    R  N N  N  II  N N  N  G       !!!           |
|           W WW W  AAAAAA  RRRRR   N  N N  II  N  N N  G  GGG   !            |
|           WW  WW  A    A  R   R   N   NN  II  N   NN  G    G                |
|           W    W  A    A  R    R  N    N  II  N    N   GGGG   !!!           |
|                                                                             |
|     You use a magnetic or noncollinear calculation, but did not specify     |
|     the initial magnetic moment with the MAGMOM tag. Note that a            |
|     default of 1 will be used for all atoms. This ferromagnetic setup       |
|     may break the symmetry of the crystal, in particular it may rule        |
|     out finding an antiferromagnetic solution. Thence, we recommend         |
|     setting the initial magnetic moment manually or verifying carefully     |
|     that this magnetic setup is desired.                                    |
|                                                                             |
 -----------------------------------------------------------------------------

 POTCAR:    PAW_PBE Li_sv 10Sep2004               
   SHA256 =  7e51fe1804c037e1dccc81a9c376d94d693a7559600c847f4b41960edb8ab895 Li_sv/POTCAR          
   COPYR  = (c) Copyright 10Sep2004 Georg Kresse                                                    
   COPYR  = This file is part of the software VASP. Any use, copying, and all other rights are regul
   COPYR  = If you do not have a valid VASP license, you may not use, copy or distribute this file. 
   VRHFIN =Li: 1s2s2p                                                                               
   LEXCH  = PE                                                                                      
   EATOM  =   202.7858 eV,   14.9043 Ry                                                             
                                                                                                    
   TITEL  = PAW_PBE Li_sv 10Sep2004                                                                 
   LULTRA =        F    use ultrasoft PP ?                                                          
   IUNSCR =        0    unscreen: 0-lin 1-nonlin 2-no                                               
   RPACOR =    0.000    partial core radius                                                         
   POMASS =    7.010; ZVAL   =    3.000    mass and valenz                                          
   RCORE  =    1.700    outmost cutoff radius                                                       
   RWIGS  =    2.050; RWIGS  =    1.085    wigner-seitz radius (au A)                               
   ENMAX  =  499.034; ENMIN  =  374.276 eV                                                          
   ICORE  =        2    local potential                                                             
   LCOR   =        T    correct aug charges                                                         
   LPAW   =        T    paw PP                                                                      
   EAUG   =  628.945                                                                                
   RMAX   =    1.732    core radius for proj-oper                                                   
   RAUG   =    1.300    factor for augmentation sphere                                              
   RDEP   =    1.728    radius for radial grids                                                     
   RDEPT  =    1.329    core radius for aug-charge                                                  
                                                                                                    
   Atomic configuration                                                                             
    4 entries                                                                                       
     n  l   j            E        occ.                                                              
     1  0  0.50       -51.8549   2.0000                                                             
     2  0  0.50        -2.8742   1.0000                                                             
     2  1  0.50        -1.3606   0.0000                                                             
     3  2  1.50        -1.3606   0.0000                                                             
   Description                                                                                      
     l       E           TYP  RCUT    TYP  RCUT                                                     
     0    -51.8548813     23  1.400                                                                 
     0     -2.8742052     23  1.700                                                                 
     1     -1.3605826     23  1.400                                                                 
     2     -1.3605826     23  1.400                                                                 
  local pseudopotential read in
  atomic valenz-charges read in
  non local Contribution for L=            0  read in
    real space projection operators read in
  non local Contribution for L=            0  read in
    real space projection operators read in
  non local Contribution for L=            1  read in
    real space projection operators read in
    PAW grid and wavefunctions read in
 
   number of l-projection  operators is LMAX  =            3
   number of lm-projection operators is LMMAX =            5
 
 POTCAR:    PAW_PBE F 08Apr2002                   
   SHA256 =  53c630871ac675939349fc2b976745ee17808dedc90b5bdde026bc81f0faf456 F/POTCAR              
   COPYR  = (c) Copyright 08Apr2002 Georg Kresse                                                    
   COPYR  = This file is part of the software VASP. Any use, copying, and all other rights are regul
   COPYR  = If you do not have a valid VASP license, you may not use, copy or distribute this file. 
   VRHFIN =F: s2p5                                                                                  
   LEXCH  = PE                                                                                      
   EATOM  =   659.6475 eV,   48.4827 Ry                                                             
                                                                                                    
   TITEL  = PAW_PBE F 08Apr2002                                                                     
   LULTRA =        F    use ultrasoft PP ?                                                          
   IUNSCR =        1    unscreen: 0-lin 1-nonlin 2-no                                               
   RPACOR =    1.200    partial core radius                                                         
   POMASS =   18.998; ZVAL   =    7.000    mass and valenz                                          
   RCORE  =    1.520    outmost cutoff radius                                                       
   RWIGS  =    1.500; RWIGS  =    0.794    wigner-seitz radius (au A)                               
   ENMAX  =  400.000; ENMIN  =  300.000 eV                                                          
   ICORE  =        2    local potential                                                             
   LCOR   =        T    correct aug charges                                                         
   LPAW   =        T    paw PP                                                                      
   EAUG   =  613.614                                                                                
   RMAX   =    1.555    core radius for proj-oper                                                   
   RAUG   =    1.300    factor for augmentation sphere                                              
   RDEP   =    1.539    radius for radial grids                                                     
   RDEPT  =    1.299    core radius for aug-charge                                                  
                                                                                                    
   Atomic configuration                                                                             
    4 entries                                                                                       
     n  l   j            E        occ.                                                              
     1  0  0.50      -663.3661   2.0000                                                             
     2  0  0.50       -29.8995   2.0000                                                             
     2  1  0.50       -11.1114   5.0000                                                             
     3  2  1.50       -10.8847   0.0000                                                             
   Description                                                                                      
     l       E           TYP  RCUT    TYP  RCUT                                                     
     0    -29.8995018     23  1.200                                                                 
     0     -9.5240782     23  1.200                                                                 
     1    -11.1113914     23  1.520                                                                 
     1      1.3605826     23  1.520                                                                 
     2    -10.8846608      7  1.500                                                                 
  local pseudopotential read in
  partial core-charges read in
  partial kinetic energy density read in
  atomic valenz-charges read in
  non local Contribution for L=            0  read in
    real space projection operators read in
  non local Contribution for L=            0  read in
    real space projection operators read in
  non local Contribution for L=            1  read in
    real space projection operators read in
  non local Contribution for L=            1  read in
    real space projection operators read in
    PAW grid and wavefunctions read in
 
   number of l-projection  operators is LMAX  =            4
   number of lm-projection operators is LMMAX =            8
 
 -----------------------------------------------------------------------------
|                                                                             |
|               ----> ADVICE to this user running VASP <----                  |
|                                                                             |
|     You have a (more or less) 'large supercell' and for larger cells it     |
|     might be more efficient to use real-space projection operators.         |
|     Therefore, try LREAL= Auto in the INCAR file.                           |
|     Mind: For very accurate calculation, you might also keep the            |
|     reciprocal projection scheme (i.e. LREAL=.FALSE.).                      |
|                                                                             |
 -----------------------------------------------------------------------------

  PAW_PBE Li_sv 10Sep2004               :
 energy of atom  1       EATOM= -202.7858
 kinetic energy error for atom=    0.0926 (will be added to EATOM!!)
  PAW_PBE F 08Apr2002                   :
 energy of atom  2       EATOM= -659.6475
 kinetic energy error for atom=    0.1978 (will be added to EATOM!!)
 
 
 POSCAR: Li4 F4
  positions in direct lattice
  velocities in cartesian coordinates
 exchange correlation table for  LEXCH =        8
   RHO(1)=    0.500       N(1)  =     2000
   RHO(2)=  100.500       N(2)  =     4000
 


--------------------------------------------------------------------------------------------------------


 ion  position               nearest neighbor table
   1  0.000  0.000  0.000- 190 2.01 136 2.01 109 2.01 115 2.01 138 2.01 208 2.01
   2  1.000  0.000  0.333- 137 2.01 209 2.01 116 2.01 110 2.01 136 2.01 191 2.01
   3  0.000  1.000  0.667- 137 2.01 210 2.01 117 2.01 138 2.01 111 2.01 192 2.01
   4  1.000  0.333  1.000- 112 2.01 141 2.01 211 2.01 109 2.01 193 2.01 139 2.01
   5  1.000  0.333  0.333- 140 2.01 113 2.01 212 2.01 194 2.01 139 2.01 110 2.01
   6  0.000  0.333  0.667- 114 2.01 140 2.01 195 2.01 213 2.01 111 2.01 141 2.01
   7  1.000  0.667  0.000- 112 2.01 214 2.01 142 2.01 115 2.01 144 2.01 196 2.01
   8  1.000  0.667  0.333- 113 2.01 143 2.01 215 2.01 197 2.01 142 2.01 116 2.01
   9  0.000  0.667  0.667- 143 2.01 114 2.01 198 2.01 216 2.01 117 2.01 144 2.01
  10  0.333  1.000  0.000- 190 2.01 199 2.01 145 2.01 124 2.01 118 2.01 147 2.01
  11  0.333  0.000  0.333- 200 2.01 119 2.01 146 2.01 145 2.01 125 2.01 191 2.01
  12  0.333  1.000  0.667- 201 2.01 146 2.01 126 2.01 120 2.01 147 2.01 192 2.01
  13  0.333  0.333  1.000- 202 2.01 121 2.01 150 2.01 148 2.01 118 2.01 193 2.01
  14  0.333  0.333  0.333- 203 2.01 149 2.01 122 2.01 119 2.01 148 2.01 194 2.01
  15  0.333  0.333  0.667- 123 2.01 149 2.01 204 2.01 195 2.01 120 2.01 150 2.01
  16  0.333  0.667  0.000- 205 2.01 121 2.01 151 2.01 153 2.01 124 2.01 196 2.01
  17  0.333  0.667  0.333- 206 2.01 122 2.01 152 2.01 151 2.01 197 2.01 125 2.01
  18  0.333  0.667  0.667- 152 2.01 123 2.01 207 2.01 126 2.01 153 2.01 198 2.01
  19  0.667  0.000  1.000- 156 2.01 199 2.01 133 2.01 127 2.01 154 2.01 208 2.01
  20  0.667  0.000  0.333- 155 2.01 128 2.01 200 2.01 134 2.01 209 2.01 154 2.01
  21  0.667  1.000  0.667- 155 2.01 201 2.01 135 2.01 129 2.01 210 2.01 156 2.01
  22  0.667  0.333  0.000- 157 2.01 130 2.01 202 2.01 211 2.01 127 2.01 159 2.01
  23  0.667  0.333  0.333- 157 2.01 158 2.01 203 2.01 131 2.01 212 2.01 128 2.01
  24  0.667  0.333  0.667- 204 2.01 132 2.01 158 2.01 213 2.01 129 2.01 159 2.01
  25  0.667  0.667  1.000- 130 2.01 205 2.01 162 2.01 160 2.01 214 2.01 133 2.01
  26  0.667  0.667  0.333- 131 2.01 161 2.01 206 2.01 160 2.01 215 2.01 134 2.01
  27  0.667  0.667  0.667- 207 2.01 161 2.01 132 2.01 135 2.01 216 2.01 162 2.01
  28  1.000  0.167  0.167- 136 2.01 109 2.01 181 2.01 163 2.01 110 2.01 139 2.01
  29  1.000  0.167  0.500- 137 2.01 140 2.01 182 2.01 110 2.01 164 2.01 111 2.01
  30  0.000  0.167  0.833- 109 2.01 138 2.01 165 2.01 183 2.01 141 2.01 111 2.01
  31  1.000  0.500  0.167- 184 2.01 112 2.01 142 2.01 113 2.01 139 2.01 166 2.01
  32  0.000  0.500  0.500- 113 2.01 167 2.01 140 2.01 143 2.01 185 2.01 114 2.01
  33  0.000  0.500  0.833- 112 2.01 168 2.01 114 2.01 141 2.01 144 2.01 186 2.01
  34  1.000  0.833  0.167- 136 2.01 115 2.01 187 2.01 169 2.01 116 2.01 142 2.01
  35  1.000  0.833  0.500- 137 2.01 143 2.01 188 2.01 116 2.01 117 2.01 170 2.01
  36  1.000  0.833  0.833- 138 2.01 115 2.01 189 2.01 171 2.01 144 2.01 117 2.01
  37  0.333  0.167  0.167- 118 2.01 145 2.01 172 2.01 163 2.01 148 2.01 119 2.01
  38  0.333  0.167  0.500- 173 2.01 146 2.01 120 2.01 119 2.01 149 2.01 164 2.01
  39  0.333  0.167  0.833- 118 2.01 147 2.01 174 2.01 165 2.01 120 2.01 150 2.01
  40  0.333  0.500  0.167- 175 2.01 121 2.01 151 2.01 148 2.01 122 2.01 166 2.01
  41  0.333  0.500  0.500- 176 2.01 149 2.01 167 2.01 122 2.01 123 2.01 152 2.01
  42  0.333  0.500  0.833- 121 2.01 177 2.01 150 2.01 153 2.01 168 2.01 123 2.01
  43  0.333  0.833  0.167- 145 2.01 124 2.01 178 2.01 169 2.01 125 2.01 151 2.01
  44  0.333  0.833  0.500- 179 2.01 146 2.01 125 2.01 126 2.01 170 2.01 152 2.01
  45  0.333  0.833  0.833- 147 2.01 124 2.01 180 2.01 171 2.01 153 2.01 126 2.01
  46  0.667  0.167  0.167- 154 2.01 172 2.01 127 2.01 128 2.01 181 2.01 157 2.01
  47  0.667  0.167  0.500- 128 2.01 173 2.01 155 2.01 182 2.01 158 2.01 129 2.01
  48  0.667  0.167  0.833- 159 2.01 174 2.01 127 2.01 156 2.01 183 2.01 129 2.01
  49  0.667  0.500  0.167- 160 2.01 131 2.01 130 2.01 175 2.01 184 2.01 157 2.01
  50  0.667  0.500  0.500- 131 2.01 176 2.01 185 2.01 158 2.01 161 2.01 132 2.01
  51  0.667  0.500  0.833- 159 2.01 177 2.01 130 2.01 186 2.01 162 2.01 132 2.01
  52  0.667  0.833  0.167- 154 2.01 178 2.01 133 2.01 160 2.01 134 2.01 187 2.01
  53  0.667  0.833  0.500- 155 2.01 179 2.01 135 2.01 134 2.01 188 2.01 161 2.01
  54  0.667  0.833  0.833- 180 2.01 133 2.01 156 2.01 135 2.01 189 2.01 162 2.01
  55  0.167  1.000  0.167- 191 2.01 145 2.01 136 2.01 169 2.01 163 2.01 190 2.01
  56  0.167  1.000  0.500- 191 2.01 192 2.01 137 2.01 146 2.01 170 2.01 164 2.01
  57  0.167  0.000  0.833- 192 2.01 147 2.01 138 2.01 165 2.01 171 2.01 190 2.01
  58  0.167  0.333  0.167- 139 2.01 193 2.01 166 2.01 148 2.01 163 2.01 194 2.01
  59  0.167  0.333  0.500- 167 2.01 140 2.01 195 2.01 194 2.01 149 2.01 164 2.01
  60  0.167  0.333  0.833- 193 2.01 168 2.01 141 2.01 165 2.01 195 2.01 150 2.01
  61  0.167  0.667  0.167- 196 2.01 142 2.01 166 2.01 169 2.01 197 2.01 151 2.01
  62  0.167  0.667  0.500- 167 2.01 143 2.01 198 2.01 197 2.01 152 2.01 170 2.01
  63  0.167  0.667  0.833- 144 2.01 168 2.01 196 2.01 171 2.01 198 2.01 153 2.01
  64  0.500  0.000  0.167- 145 2.01 199 2.01 172 2.01 200 2.01 178 2.01 154 2.01
  65  0.500  1.000  0.500- 200 2.01 155 2.01 179 2.01 173 2.01 201 2.01 146 2.01
  66  0.500  1.000  0.833- 147 2.01 199 2.01 180 2.01 201 2.01 174 2.01 156 2.01
  67  0.500  0.333  0.167- 148 2.01 203 2.01 202 2.01 175 2.01 172 2.01 157 2.01
  68  0.500  0.333  0.500- 203 2.01 176 2.01 173 2.01 149 2.01 158 2.01 204 2.01
  69  0.500  0.333  0.833- 159 2.01 177 2.01 202 2.01 174 2.01 150 2.01 204 2.01
  70  0.500  0.667  0.167- 175 2.01 205 2.01 151 2.01 160 2.01 206 2.01 178 2.01
  71  0.500  0.667  0.500- 176 2.01 179 2.01 206 2.01 161 2.01 152 2.01 207 2.01
  72  0.500  0.667  0.833- 205 2.01 177 2.01 162 2.01 153 2.01 180 2.01 207 2.01
  73  0.833  0.000  0.167- 208 2.01 136 2.01 181 2.01 187 2.01 154 2.01 209 2.01
  74  0.833  0.000  0.500- 137 2.01 155 2.01 182 2.01 188 2.01 209 2.01 210 2.01
  75  0.833  1.000  0.833- 208 2.01 138 2.01 189 2.01 183 2.01 156 2.01 210 2.01
  76  0.833  0.333  0.167- 139 2.01 211 2.01 184 2.01 212 2.01 181 2.01 157 2.01
  77  0.833  0.333  0.500- 212 2.01 140 2.01 185 2.01 213 2.01 182 2.01 158 2.01
  78  0.833  0.333  0.833- 159 2.01 186 2.01 211 2.01 141 2.01 183 2.01 213 2.01
  79  0.833  0.667  0.167- 184 2.01 142 2.01 214 2.01 160 2.01 215 2.01 187 2.01
  80  0.833  0.667  0.500- 143 2.01 185 2.01 215 2.01 216 2.01 188 2.01 161 2.01
  81  0.833  0.667  0.833- 214 2.01 144 2.01 186 2.01 162 2.01 216 2.01 189 2.01
  82  0.167  0.167  1.000- 193 2.01 118 2.01 109 2.01 165 2.01 163 2.01 190 2.01
  83  0.167  0.167  0.333- 110 2.01 191 2.01 164 2.01 163 2.01 194 2.01 119 2.01
  84  0.167  0.167  0.667- 192 2.01 164 2.01 111 2.01 165 2.01 195 2.01 120 2.01
  85  0.167  0.500  1.000- 193 2.01 196 2.01 112 2.01 121 2.01 168 2.01 166 2.01
  86  0.167  0.500  0.333- 113 2.01 167 2.01 194 2.01 197 2.01 122 2.01 166 2.01
  87  0.167  0.500  0.667- 167 2.01 114 2.01 195 2.01 198 2.01 168 2.01 123 2.01
  88  0.167  0.833  1.000- 196 2.01 124 2.01 115 2.01 171 2.01 169 2.01 190 2.01
  89  0.167  0.833  0.333- 191 2.01 170 2.01 116 2.01 169 2.01 125 2.01 197 2.01
  90  0.167  0.833  0.667- 192 2.01 117 2.01 170 2.01 171 2.01 198 2.01 126 2.01
  91  0.500  0.167  1.000- 118 2.01 199 2.01 174 2.01 202 2.01 172 2.01 127 2.01
  92  0.500  0.167  0.333- 200 2.01 173 2.01 128 2.01 119 2.01 203 2.01 172 2.01
  93  0.500  0.167  0.667- 173 2.01 201 2.01 120 2.01 129 2.01 174 2.01 204 2.01
  94  0.500  0.500  1.000- 177 2.01 130 2.01 205 2.01 202 2.01 121 2.01 175 2.01
  95  0.500  0.500  0.333- 203 2.01 131 2.01 175 2.01 176 2.01 122 2.01 206 2.01
  96  0.500  0.500  0.667- 176 2.01 123 2.01 207 2.01 177 2.01 204 2.01 132 2.01
  97  0.500  0.833  1.000- 124 2.01 199 2.01 205 2.01 180 2.01 178 2.01 133 2.01
  98  0.500  0.833  0.333- 200 2.01 179 2.01 125 2.01 134 2.01 178 2.01 206 2.01
  99  0.500  0.833  0.667- 179 2.01 201 2.01 126 2.01 135 2.01 180 2.01 207 2.01
 100  0.833  0.167  1.000- 208 2.01 109 2.01 183 2.01 181 2.01 127 2.01 211 2.01
 101  0.833  0.167  0.333- 110 2.01 209 2.01 182 2.01 128 2.01 212 2.01 181 2.01
 102  0.833  0.167  0.667- 182 2.01 111 2.01 210 2.01 129 2.01 213 2.01 183 2.01
 103  0.833  0.500  1.000- 112 2.01 186 2.01 130 2.01 184 2.01 211 2.01 214 2.01
 104  0.833  0.500  0.333- 113 2.01 185 2.01 212 2.01 215 2.01 131 2.01 184 2.01
 105  0.833  0.500  0.667- 185 2.01 114 2.01 216 2.01 213 2.01 186 2.01 132 2.01
 106  0.833  0.833  1.000- 208 2.01 115 2.01 189 2.01 187 2.01 133 2.01 214 2.01
 107  0.833  0.833  0.333- 209 2.01 188 2.01 116 2.01 215 2.01 134 2.01 187 2.01
 108  0.833  0.833  0.667- 188 2.01 117 2.01 210 2.01 135 2.01 216 2.01 189 2.01
 109  0.000  0.167  1.000-  30 2.01 100 2.01  28 2.01  82 2.01   4 2.01   1 2.01
 110  1.000  0.167  0.333-  83 2.01 101 2.01  29 2.01   2 2.01   5 2.01  28 2.01
 111  1.000  0.167  0.667- 102 2.01  84 2.01   3 2.01  29 2.01  30 2.01   6 2.01
 112  0.000  0.500  1.000-  33 2.01  85 2.01   7 2.01   4 2.01 103 2.01  31 2.01
 113  0.000  0.500  0.333-  86 2.01   8 2.01   5 2.01 104 2.01  31 2.01  32 2.01
 114  1.000  0.500  0.667- 105 2.01   6 2.01   9 2.01  87 2.01  33 2.01  32 2.01
 115  0.000  0.833  1.000- 106 2.01  36 2.01  34 2.01  88 2.01   7 2.01   1 2.01
 116  1.000  0.833  0.333- 107 2.01  89 2.01  35 2.01   2 2.01  34 2.01   8 2.01
 117  1.000  0.833  0.667- 108 2.01  90 2.01   3 2.01  35 2.01   9 2.01  36 2.01
 118  0.333  0.167  1.000-  39 2.01  37 2.01  82 2.01  91 2.01  13 2.01  10 2.01
 119  0.333  0.167  0.333-  11 2.01  38 2.01  92 2.01  14 2.01  83 2.01  37 2.01
 120  0.333  0.167  0.667-  38 2.01  93 2.01  12 2.01  15 2.01  84 2.01  39 2.01
 121  0.333  0.500  1.000-  42 2.01  13 2.01  16 2.01  40 2.01  85 2.01  94 2.01
 122  0.333  0.500  0.333-  17 2.01  14 2.01  41 2.01  95 2.01  86 2.01  40 2.01
 123  0.333  0.500  0.667-  15 2.01  18 2.01  96 2.01  41 2.01  42 2.01  87 2.01
 124  0.333  0.833  0.000-  45 2.01  43 2.01  88 2.01  97 2.01  16 2.01  10 2.01
 125  0.333  0.833  0.333-  44 2.01  98 2.01  11 2.01  89 2.01  43 2.01  17 2.01
 126  0.333  0.833  0.667-  99 2.01  12 2.01  44 2.01  18 2.01  90 2.01  45 2.01
 127  0.667  0.167  0.000-  48 2.01  46 2.01  19 2.01  91 2.01  22 2.01 100 2.01
 128  0.667  0.167  0.333-  47 2.01  20 2.01  46 2.01  92 2.01 101 2.01  23 2.01
 129  0.667  0.167  0.667-  93 2.01  21 2.01  47 2.01  24 2.01 102 2.01  48 2.01
 130  0.667  0.500  0.000-  22 2.01  25 2.01  51 2.01  49 2.01 103 2.01  94 2.01
 131  0.667  0.500  0.333-  26 2.01  49 2.01  50 2.01  23 2.01  95 2.01 104 2.01
 132  0.667  0.500  0.667-  24 2.01  27 2.01  96 2.01 105 2.01  50 2.01  51 2.01
 133  0.667  0.833  0.000-  52 2.01  54 2.01  19 2.01  97 2.01  25 2.01 106 2.01
 134  0.667  0.833  0.333-  20 2.01  53 2.01  98 2.01  52 2.01 107 2.01  26 2.01
 135  0.667  0.833  0.667-  21 2.01  99 2.01  53 2.01  54 2.01  27 2.01 108 2.01
 136  0.000  0.000  0.167-  73 2.01  28 2.01  34 2.01  55 2.01   2 2.01   1 2.01
 137  0.000  1.000  0.500-  56 2.01   3 2.01  35 2.01  29 2.01   2 2.01  74 2.01
 138  0.000  1.000  0.833-  36 2.01  75 2.01  30 2.01  57 2.01   3 2.01   1 2.01
 139  0.000  0.333  0.167-  76 2.01  58 2.01  31 2.01   4 2.01   5 2.01  28 2.01
 140  1.000  0.333  0.500-   5 2.01  77 2.01  59 2.01   6 2.01  29 2.01  32 2.01
 141  1.000  0.333  0.833-  60 2.01   4 2.01  33 2.01  30 2.01  78 2.01   6 2.01
 142  1.000  0.667  0.167-  79 2.01  61 2.01  31 2.01   7 2.01   8 2.01  34 2.01
 143  0.000  0.667  0.500-   9 2.01  62 2.01  80 2.01   8 2.01  35 2.01  32 2.01
 144  1.000  0.667  0.833-  81 2.01  63 2.01   7 2.01  33 2.01  36 2.01   9 2.01
 145  0.333  0.000  0.167-  37 2.01  43 2.01  64 2.01  55 2.01  11 2.01  10 2.01
 146  0.333  0.000  0.500-  44 2.01  38 2.01  12 2.01  11 2.01  56 2.01  65 2.01
 147  0.333  1.000  0.833-  45 2.01  39 2.01  57 2.01  66 2.01  12 2.01  10 2.01
 148  0.333  0.333  0.167-  67 2.01  40 2.01  13 2.01  58 2.01  14 2.01  37 2.01
 149  0.333  0.333  0.500-  14 2.01  15 2.01  41 2.01  68 2.01  38 2.01  59 2.01
 150  0.333  0.333  0.833-  13 2.01  42 2.01  15 2.01  39 2.01  69 2.01  60 2.01
 151  0.333  0.667  0.167-  70 2.01  40 2.01  16 2.01  17 2.01  61 2.01  43 2.01
 152  0.333  0.667  0.500-  17 2.01  18 2.01  71 2.01  41 2.01  62 2.01  44 2.01
 153  0.333  0.667  0.833-  42 2.01  16 2.01  72 2.01  18 2.01  63 2.01  45 2.01
 154  0.667  1.000  0.167-  46 2.01  52 2.01  19 2.01  64 2.01  20 2.01  73 2.01
 155  0.667  1.000  0.500-  20 2.01  53 2.01  47 2.01  21 2.01  74 2.01  65 2.01
 156  0.667  0.000  0.833-  19 2.01  54 2.01  66 2.01  48 2.01  21 2.01  75 2.01
 157  0.667  0.333  0.167-  22 2.01  23 2.01  67 2.01  49 2.01  46 2.01  76 2.01
 158  0.667  0.333  0.500-  24 2.01  23 2.01  50 2.01  68 2.01  77 2.01  47 2.01
 159  0.667  0.333  0.833-  69 2.01  51 2.01  48 2.01  78 2.01  24 2.01  22 2.01
 160  0.667  0.667  0.167-  49 2.01  70 2.01  25 2.01  52 2.01  26 2.01  79 2.01
 161  0.667  0.667  0.500-  26 2.01  27 2.01  71 2.01  50 2.01  80 2.01  53 2.01
 162  0.667  0.667  0.833-  25 2.01  72 2.01  81 2.01  27 2.01  54 2.01  51 2.01
 163  0.167  0.167  0.167-  82 2.01  28 2.01  55 2.01  58 2.01  83 2.01  37 2.01
 164  0.167  0.167  0.500-  84 2.01  83 2.01  56 2.01  29 2.01  38 2.01  59 2.01
 165  0.167  0.167  0.833-  30 2.01  57 2.01  82 2.01  84 2.01  60 2.01  39 2.01
 166  0.167  0.500  0.167-  58 2.01  61 2.01  85 2.01  31 2.01  86 2.01  40 2.01
 167  0.167  0.500  0.500-  62 2.01  86 2.01  87 2.01  59 2.01  41 2.01  32 2.01
 168  0.167  0.500  0.833-  63 2.01  60 2.01  33 2.01  85 2.01  42 2.01  87 2.01
 169  0.167  0.833  0.167-  34 2.01  55 2.01  88 2.01  89 2.01  61 2.01  43 2.01
 170  0.167  0.833  0.500-  89 2.01  90 2.01  56 2.01  35 2.01  44 2.01  62 2.01
 171  0.167  0.833  0.833-  36 2.01  88 2.01  57 2.01  90 2.01  63 2.01  45 2.01
 172  0.500  0.167  0.167-  46 2.01  37 2.01  64 2.01  91 2.01  92 2.01  67 2.01
 173  0.500  0.167  0.500-  93 2.01  47 2.01  38 2.01  92 2.01  68 2.01  65 2.01
 174  0.500  0.167  0.833-  48 2.01  39 2.01  91 2.01  66 2.01  69 2.01  93 2.01
 175  0.500  0.500  0.167-  70 2.01  40 2.01  49 2.01  67 2.01  95 2.01  94 2.01
 176  0.500  0.500  0.500-  96 2.01  71 2.01  50 2.01  41 2.01  68 2.01  95 2.01
 177  0.500  0.500  0.833-  69 2.01  51 2.01  42 2.01  72 2.01  96 2.01  94 2.01
 178  0.500  0.833  0.167-  52 2.01  43 2.01  97 2.01  64 2.01  98 2.01  70 2.01
 179  0.500  0.833  0.500-  44 2.01  98 2.01  53 2.01  99 2.01  71 2.01  65 2.01
 180  0.500  0.833  0.833-  54 2.01  45 2.01  66 2.01  97 2.01  72 2.01  99 2.01
 181  0.833  0.167  0.167-  73 2.01  28 2.01 100 2.01 101 2.01  46 2.01  76 2.01
 182  0.833  0.167  0.500- 102 2.01 101 2.01  29 2.01  74 2.01  77 2.01  47 2.01
 183  0.833  0.167  0.833- 100 2.01  75 2.01  30 2.01  48 2.01  78 2.01 102 2.01
 184  0.833  0.500  0.167-  79 2.01  76 2.01  31 2.01 103 2.01 104 2.01  49 2.01
 185  0.833  0.500  0.500- 105 2.01  80 2.01  77 2.01 104 2.01  50 2.01  32 2.01
 186  0.833  0.500  0.833-  78 2.01  81 2.01 103 2.01  33 2.01  51 2.01 105 2.01
 187  0.833  0.833  0.167- 106 2.01  34 2.01  73 2.01  52 2.01 107 2.01  79 2.01
 188  0.833  0.833  0.500- 107 2.01 108 2.01  35 2.01  74 2.01  80 2.01  53 2.01
 189  0.833  0.833  0.833-  75 2.01 106 2.01  36 2.01  54 2.01  81 2.01 108 2.01
 190  0.167  1.000  1.000-   1 2.01  10 2.01  88 2.01  57 2.01  55 2.01  82 2.01
 191  0.167  0.000  0.333-  55 2.01  83 2.01  89 2.01  56 2.01   2 2.01  11 2.01
 192  0.167  1.000  0.667-  57 2.01  90 2.01  84 2.01  56 2.01   3 2.01  12 2.01
 193  0.167  0.333  0.000-  82 2.01  58 2.01  60 2.01  85 2.01   4 2.01  13 2.01
 194  0.167  0.333  0.333-  86 2.01   5 2.01  59 2.01  83 2.01  58 2.01  14 2.01
 195  0.167  0.333  0.667-   6 2.01  87 2.01  59 2.01  84 2.01  60 2.01  15 2.01
 196  0.167  0.667  0.000-  88 2.01  61 2.01  63 2.01  85 2.01   7 2.01  16 2.01
 197  0.167  0.667  0.333-  62 2.01   8 2.01  86 2.01  61 2.01  17 2.01  89 2.01
 198  0.167  0.667  0.667-   9 2.01  62 2.01  87 2.01  90 2.01  63 2.01  18 2.01
 199  0.500  1.000  1.000-  19 2.01  66 2.01  97 2.01  91 2.01  64 2.01  10 2.01
 200  0.500  0.000  0.333-  11 2.01  98 2.01  20 2.01  92 2.01  64 2.01  65 2.01
 201  0.500  0.000  0.667-  93 2.01  12 2.01  99 2.01  21 2.01  66 2.01  65 2.01
 202  0.500  0.333  0.000-  13 2.01  69 2.01  22 2.01  67 2.01  91 2.01  94 2.01
 203  0.500  0.333  0.333-  14 2.01  67 2.01  68 2.01  23 2.01  95 2.01  92 2.01
 204  0.500  0.333  0.667-  24 2.01  15 2.01  96 2.01  93 2.01  68 2.01  69 2.01
 205  0.500  0.667  1.000-  16 2.01  72 2.01  70 2.01  25 2.01  97 2.01  94 2.01
 206  0.500  0.667  0.333-  17 2.01  26 2.01  71 2.01  95 2.01  70 2.01  98 2.01
 207  0.500  0.667  0.667-  27 2.01  18 2.01  96 2.01  71 2.01  72 2.01  99 2.01
 208  0.833  0.000  1.000-  75 2.01 106 2.01 100 2.01  73 2.01  19 2.01   1 2.01
 209  0.833  1.000  0.333- 107 2.01 101 2.01   2 2.01  74 2.01  20 2.01  73 2.01
 210  0.833  0.000  0.667- 102 2.01 108 2.01   3 2.01  21 2.01  74 2.01  75 2.01
 211  0.833  0.333  0.000-  78 2.01  76 2.01   4 2.01 103 2.01  22 2.01 100 2.01
 212  0.833  0.333  0.333-  77 2.01   5 2.01 104 2.01  76 2.01 101 2.01  23 2.01
 213  0.833  0.333  0.667- 105 2.01   6 2.01  77 2.01  24 2.01 102 2.01  78 2.01
 214  0.833  0.667  1.000-  81 2.01  79 2.01   7 2.01 103 2.01  25 2.01 106 2.01
 215  0.833  0.667  0.333-  80 2.01   8 2.01 104 2.01  26 2.01 107 2.01  79 2.01
 216  0.833  0.667  0.667- 105 2.01  80 2.01   9 2.01  27 2.01  81 2.01 108 2.01
 
  LATTYP: Found a simple cubic cell.
 ALAT       =    12.0789003372
  
  Lattice vectors:
  
 A1 = (  12.0789003372,   0.0000000000,   0.0000000000)
 A2 = (   0.0000000000,  12.0789003372,   0.0000000000)
 A3 = (   0.0000000000,   0.0000000000,  12.0789003372)


Analysis of symmetry for initial positions (statically):
=====================================================================
 Subroutine PRICEL returns:
 Original cell was already a primitive cell.
 

 Routine SETGRP: Setting up the symmetry group for a 
 simple cubic supercell.


 Subroutine GETGRP returns: Found  1 space group operations
 (whereof  1 operations were pure point group operations)
 out of a pool of 48 trial point group operations.


The static configuration has the point symmetry C_1 .


Analysis of symmetry for dynamics (positions and initial velocities):
=====================================================================
 Subroutine PRICEL returns:
 Original cell was already a primitive cell.
 

 Routine SETGRP: Setting up the symmetry group for a 
 simple cubic supercell.


 Subroutine GETGRP returns: Found  1 space group operations
 (whereof  1 operations were pure point group operations)
 out of a pool of 48 trial point group operations.


The dynamic configuration has the point symmetry C_1 .


Analysis of structural, dynamic, and magnetic symmetry:
=====================================================================
 Subroutine PRICEL returns:
 Original cell was already a primitive cell.
 

 Routine SETGRP: Setting up the symmetry group for a 
 simple cubic supercell.


 Subroutine GETGRP returns: Found  1 space group operations
 (whereof  1 operations were pure point group operations)
 out of a pool of 48 trial point group operations.


The overall configuration has the point symmetry C_1 .


 Subroutine INISYM returns: Found  1 space group operations
 (whereof  1 operations are pure point group operations),
 and found     1 'primitive' translations


----------------------------------------------------------------------------------------

                                     Primitive cell                                     

  volume of cell :    1762.3095

  direct lattice vectors                    reciprocal lattice vectors
    12.078900337  0.000000000  0.000000000     0.082788993  0.000000000  0.000000000
     0.000000000 12.078900337  0.000000000     0.000000000  0.082788993  0.000000000
     0.000000000  0.000000000 12.078900337     0.000000000  0.000000000  0.082788993

  length of vectors
    12.078900337 12.078900337 12.078900337     0.082788993  0.082788993  0.082788993

  position of ions in fractional coordinates (direct lattice)
     0.000180901  0.000000038  0.000000552
     0.999999475  0.000000321  0.333340615
     0.000000217  0.999999697  0.666658619
     0.999999930  0.333340944  0.999999771
     0.999999140  0.333350248  0.333352619
     0.000002087  0.333349858  0.666652486
     0.999999865  0.666658979  0.000000514
     0.999999990  0.666649877  0.333349559
     0.000000904  0.666650440  0.666649649
     0.333358894  0.999999954  0.000000551
     0.333353107  0.000019843  0.333347691
     0.333352253  0.999999584  0.666651453
     0.333352519  0.333348297  0.999999878
     0.333358299  0.333358039  0.333358966
     0.333354864  0.333356535  0.666645891
     0.333352635  0.666652189  0.000000349
     0.333356892  0.666645012  0.333355921
     0.333356071  0.666644347  0.666643425
     0.666676150  0.000000044  0.999999714
     0.666652514  0.000001587  0.333354223
     0.666652589  0.999998594  0.666650924
     0.666651475  0.333352522  0.000192359
     0.666642582  0.333357567  0.333375271
     0.666642881  0.333357080  0.666660030
     0.666652598  0.666648500  0.999999646
     0.666643077  0.666641245  0.333359875
     0.666642919  0.666644348  0.666645195
     0.999995230  0.166648054  0.166649479
     0.999999384  0.166659070  0.499999131
     0.000000529  0.166651916  0.833349402
     0.999996400  0.500001851  0.166658654
     0.000000059  0.499999862  0.499998911
     0.000001991  0.499998094  0.833340342
     0.999997816  0.833349878  0.166650309
     0.999998927  0.833340846  0.499999538
     0.999997452  0.833349885  0.833349879
     0.333358059  0.166642543  0.166633904
     0.333350353  0.166654958  0.500004869
     0.333352093  0.166641805  0.833359471
     0.333353217  0.500001263  0.166650087
     0.333340908  0.499999251  0.499998951
     0.333347321  0.499998114  0.833349091
     0.333354798  0.833364470  0.166645757
     0.333350303  0.833354046  0.499993753
     0.333355355  0.833360027  0.833360019
     0.666640955  0.166588974  0.166691438
     0.666650060  0.166649857  0.499993088
     0.666641504  0.166702916  0.833397878
     0.666650422  0.500059372  0.166695538
     0.666658872  0.499999721  0.499992867
     0.666650294  0.499941096  0.833394373
     0.666641631  0.833353731  0.166646433
     0.666650641  0.833350228  0.499999899
     0.666641331  0.833353842  0.833353811
     0.166696029  0.999999388  0.166706820
     0.166659204  0.999999748  0.499999694
     0.166696033  0.000000163  0.833293248
     0.166643278  0.333353514  0.166645501
     0.166650483  0.333350071  0.499999836
     0.166642870  0.333353739  0.833354816
     0.166642627  0.666646430  0.166644858
     0.166649903  0.666649545  0.499999957
     0.166642970  0.666646019  0.833354871
     0.499990842  0.000002546  0.166658526
     0.500000156  0.999999840  0.499998905
     0.499994665  0.999997112  0.833340525
     0.499939251  0.333349557  0.166696134
     0.499999621  0.333340727  0.499992598
     0.500057930  0.333349911  0.833394099
     0.499997311  0.666647036  0.166649399
     0.500000104  0.666658879  0.499999218
     0.500000813  0.666653150  0.833349438
     0.833396252  0.000002655  0.166593476
     0.833340908  0.000000031  0.499998954
     0.833392476  0.999997190  0.833405609
     0.833413425  0.333359964  0.166686834
     0.833349844  0.333349668  0.499992940
     0.833299493  0.333359631  0.833402644
     0.833358187  0.666637274  0.166641105
     0.833349928  0.666650279  0.499998894
     0.833354506  0.666643153  0.833358047
     0.166695796  0.166706737  0.999999419
     0.166637158  0.166649262  0.333354027
     0.166642739  0.166645361  0.666646159
     0.166659187  0.499999886  0.999999151
     0.166650192  0.499999635  0.333350484
     0.166650187  0.499999560  0.666650008
     0.166696177  0.833293126  0.999999719
     0.166648661  0.833359352  0.333353557
     0.166643103  0.833354818  0.666646342
     0.499993089  0.166658831  0.999997649
     0.500007891  0.166657601  0.333348267
     0.499996561  0.166647217  0.666648107
     0.500000014  0.499999972  0.999997699
     0.500002724  0.499996352  0.333339353
     0.499997126  0.500002544  0.666657305
     0.499992615  0.833341033  0.999998861
     0.499992705  0.833354443  0.333350112
     0.499999176  0.833349930  0.666650669
     0.833394178  0.166593992  0.999997346
     0.833353215  0.166644587  0.333358135
     0.833359106  0.166638656  0.666638401
     0.833341058  0.499999888  0.999997375
     0.833346916  0.499997014  0.333348032
     0.833352748  0.500002601  0.666648602
     0.833394316  0.833406132  0.999999131
     0.833356676  0.833358598  0.333360125
     0.833355972  0.833358547  0.666640323
     0.000043084  0.166673216  0.999997835
     0.999998207  0.166667935  0.333331855
     0.999995939  0.166667789  0.666667780
     0.000001470  0.499999993  0.999997614
     0.000001851  0.500000231  0.333325278
     0.999997977  0.499999931  0.666674351
     0.000043026  0.833326759  0.999999829
     0.999999281  0.833332734  0.333331956
     0.999997757  0.833332233  0.666667916
     0.333343682  0.166680523  0.999996279
     0.333334334  0.166671350  0.333338208
     0.333338251  0.166664402  0.666663058
     0.333324982  0.499999868  0.999997759
     0.333330215  0.500002080  0.333331946
     0.333334086  0.499999867  0.666667776
     0.333343562  0.833320500  0.000001445
     0.333336348  0.833343877  0.333338317
     0.333336279  0.833336623  0.666659934
     0.666678338  0.166658225  0.000044400
     0.666665191  0.166651919  0.333345502
     0.666663547  0.166674068  0.666675874
     0.666673721  0.499998930  0.000043981
     0.666667834  0.500011955  0.333343241
     0.666667834  0.499989414  0.666678150
     0.666678568  0.833342955  0.000001691
     0.666662072  0.833336975  0.333333659
     0.666663690  0.833336521  0.666664922
     0.000042737  0.000000135  0.166672804
     0.000001618  0.999999722  0.500000558
     0.000043481  0.999999561  0.833326543
     0.000013102  0.333332064  0.166672016
     0.999999787  0.333325523  0.500000236
     0.999982343  0.333332094  0.833336906
     0.999997500  0.666667504  0.166667304
     0.000000084  0.666674456  0.500000500
     0.999998107  0.666668292  0.833331985
     0.333343953  0.000004894  0.166679572
     0.333324799  0.000004394  0.500000463
     0.333343180  0.999999799  0.833319749
     0.333320654  0.333339484  0.166666955
     0.333332098  0.333333225  0.500001305
     0.333352028  0.333338350  0.833340827
     0.333336761  0.666662203  0.166664524
     0.333332166  0.666668897  0.499999370
     0.333335969  0.666661829  0.833335867
     0.666678478  0.999984216  0.166661261
     0.666673828  0.999999676  0.500000230
     0.666678496  0.000015402  0.833347665
     0.666663631  0.333334653  0.166743933
     0.666668012  0.333332241  0.500019156
     0.666663572  0.333334493  0.833409506
     0.666663436  0.666681194  0.166667709
     0.666667652  0.666667803  0.500000165
     0.666663658  0.666649820  0.833341214
     0.166662919  0.166668443  0.166666975
     0.166667224  0.166666879  0.500000250
     0.166663351  0.166666703  0.833332288
     0.166667608  0.499999568  0.166666658
     0.166674252  0.500000509  0.499999938
     0.166667587  0.500000843  0.833332940
     0.166663604  0.833332432  0.166667704
     0.166667958  0.833333071  0.499999741
     0.166663123  0.833332375  0.833332222
     0.500001697  0.166664148  0.166667193
     0.500000343  0.166674386  0.500005303
     0.500008747  0.166671699  0.833332325
     0.499996262  0.500004292  0.166674109
     0.500000215  0.500000587  0.500005137
     0.500003969  0.499996083  0.833325793
     0.500005646  0.833332081  0.166668013
     0.499999659  0.833325519  0.499999541
     0.500004367  0.833332085  0.833331974
     0.833340381  0.166655743  0.166659392
     0.833332156  0.166668571  0.500004765
     0.833332791  0.166663289  0.833340610
     0.833335782  0.500003763  0.166668334
     0.833325458  0.500000086  0.500004916
     0.833328235  0.499996324  0.833331543
     0.833335703  0.833340365  0.166659212
     0.833332100  0.833331292  0.499999996
     0.833337434  0.833340375  0.833340294
     0.166755056  0.999999783  0.999999923
     0.166672150  0.000004493  0.333347750
     0.166672128  0.999999704  0.666652048
     0.166672163  0.333347854  0.000001565
     0.166662126  0.333337067  0.333335220
     0.166663215  0.333336015  0.666663497
     0.166672123  0.666652073  0.000000076
     0.166664336  0.666665010  0.333335914
     0.166663222  0.666663996  0.666663731
     0.500020049  0.999999875  0.999997626
     0.500000153  0.000002437  0.333325360
     0.500000543  0.000001674  0.666674260
     0.500001538  0.333325727  0.000043785
     0.499989815  0.333333286  0.333343215
     0.500011281  0.333332201  0.666678384
     0.500000537  0.666674176  0.999997949
     0.499999332  0.666670807  0.333331985
     0.500000768  0.666665851  0.666667536
     0.833398350  0.000000012  0.999997757
     0.833337036  0.999998189  0.333316328
     0.833336684  0.000001824  0.666683370
     0.833335490  0.333316671  0.000044360
     0.833348078  0.333336702  0.333347800
     0.833325422  0.333336804  0.666673609
     0.833336689  0.666683309  0.999997791
     0.833336320  0.666665132  0.333336541
     0.833335981  0.666661311  0.666663191

  ion indices of the primitive-cell ions
   primitive index   ion index
                 1           1
                 2           2
                 3           3
                 4           4
                 5           5
                 6           6
                 7           7
                 8           8
                 9           9
                10          10
                11          11
                12          12
                13          13
                14          14
                15          15
                16          16
                17          17
                18          18
                19          19
                20          20
                21          21
                22          22
                23          23
                24          24
                25          25
                26          26
                27          27
                28          28
                29          29
                30          30
                31          31
                32          32
                33          33
                34          34
                35          35
                36          36
                37          37
                38          38
                39          39
                40          40
                41          41
                42          42
                43          43
                44          44
                45          45
                46          46
                47          47
                48          48
                49          49
                50          50
                51          51
                52          52
                53          53
                54          54
                55          55
                56          56
                57          57
                58          58
                59          59
                60          60
                61          61
                62          62
                63          63
                64          64
                65          65
                66          66
                67          67
                68          68
                69          69
                70          70
                71          71
                72          72
                73          73
                74          74
                75          75
                76          76
                77          77
                78          78
                79          79
                80          80
                81          81
                82          82
                83          83
                84          84
                85          85
                86          86
                87          87
                88          88
                89          89
                90          90
                91          91
                92          92
                93          93
                94          94
                95          95
                96          96
                97          97
                98          98
                99          99
               100         100
               101         101
               102         102
               103         103
               104         104
               105         105
               106         106
               107         107
               108         108
               109         109
               110         110
               111         111
               112         112
               113         113
               114         114
               115         115
               116         116
               117         117
               118         118
               119         119
               120         120
               121         121
               122         122
               123         123
               124         124
               125         125
               126         126
               127         127
               128         128
               129         129
               130         130
               131         131
               132         132
               133         133
               134         134
               135         135
               136         136
               137         137
               138         138
               139         139
               140         140
               141         141
               142         142
               143         143
               144         144
               145         145
               146         146
               147         147
               148         148
               149         149
               150         150
               151         151
               152         152
               153         153
               154         154
               155         155
               156         156
               157         157
               158         158
               159         159
               160         160
               161         161
               162         162
               163         163
               164         164
               165         165
               166         166
               167         167
               168         168
               169         169
               170         170
               171         171
               172         172
               173         173
               174         174
               175         175
               176         176
               177         177
               178         178
               179         179
               180         180
               181         181
               182         182
               183         183
               184         184
               185         185
               186         186
               187         187
               188         188
               189         189
               190         190
               191         191
               192         192
               193         193
               194         194
               195         195
               196         196
               197         197
               198         198
               199         199
               200         200
               201         201
               202         202
               203         203
               204         204
               205         205
               206         206
               207         207
               208         208
               209         209
               210         210
               211         211
               212         212
               213         213
               214         214
               215         215
               216         216

----------------------------------------------------------------------------------------

 
 
 KPOINTS: Gamma-point only                        

Automatic generation of k-mesh.
 Grid dimensions read from file:
 generate k-points for:    1    1    1

 Generating k-lattice:

  Cartesian coordinates                     Fractional coordinates (reciprocal lattice)
     0.082788993  0.000000000  0.000000000     1.000000000  0.000000000  0.000000000
     0.000000000  0.082788993  0.000000000     0.000000000  1.000000000  0.000000000
     0.000000000  0.000000000  0.082788993     0.000000000  0.000000000  1.000000000

  Length of vectors
     0.082788993  0.082788993  0.082788993

  Shift w.r.t. Gamma in fractional coordinates (k-lattice)
     0.000000000  0.000000000  0.000000000

 
 Subroutine IBZKPT returns following result:
 ===========================================
 
 Found      1 irreducible k-points:
 
 Following reciprocal coordinates:
            Coordinates               Weight
  0.000000  0.000000  0.000000      1.000000
 
 Following cartesian coordinates:
            Coordinates               Weight
  0.000000  0.000000  0.000000      1.000000
 


--------------------------------------------------------------------------------------------------------




 Dimension of arrays:
   k-points           NKPTS =      1   k-points in BZ     NKDIM =      1   number of bands    NBANDS=    758
   number of dos      NEDOS =    301   number of ions     NIONS =    216
   non local maximal  LDIM  =      4   non local SUM 2l+1 LMDIM =      8
   total plane-waves  NPLWV = 512000
   max r-space proj   IRMAX =      1   max aug-charges    IRDMAX=   3893
   dimension x,y,z NGX =    80 NGY =   80 NGZ =   80
   dimension x,y,z NGXF=   160 NGYF=  160 NGZF=  160
   support grid    NGXF=   160 NGYF=  160 NGZF=  160
   ions per type =             108 108
   NGX,Y,Z   is equivalent  to a cutoff of  11.01, 11.01, 11.01 a.u.
   NGXF,Y,Z  is equivalent  to a cutoff of  22.02, 22.02, 22.02 a.u.

 SYSTEM =  Si                                      
 POSCAR =  Li4 F4                                  

 Startparameter for this run:
   NWRITE =      2    write-flag & timer
   PREC   = accura    normal or accurate (medium, high low for compatibility)
   ISTART =      0    job   : 0-new  1-cont  2-samecut
   ICHARG =      2    charge: 1-file 2-atom 10-const
   ISPIN  =      2    spin polarized calculation?
   LNONCOLLINEAR =      F non collinear calculations
   LSORBIT =      F    spin-orbit coupling
   INIWAV =      1    electr: 0-lowe 1-rand  2-diag
   LASPH  =      F    aspherical Exc in radial PAW
 Electronic Relaxation 1
   ENCUT  =  400.0 eV  29.40 Ry    5.42 a.u.  19.70 19.70 19.70*2*pi/ulx,y,z
   ENINI  =  400.0     initial cutoff
   ENAUG  =  628.9 eV  augmentation charge cutoff
   NELM   =     20;   NELMIN=  2; NELMDL=  0     # of ELM steps 
   EDIFF  = 0.1E-09   stopping-criterion for ELM
   LREAL  =      F    real-space projection
   NLSPLINE    = F    spline interpolate recip. space projectors
   LCOMPAT=      F    compatible to vasp.4.4
   GGA_COMPAT  = T    GGA compatible to vasp.4.4-vasp.4.6
   LMAXPAW     = -100 max onsite density
   LMAXMIX     =    2 max onsite mixed and CHGCAR
   VOSKOWN=      0    Vosko Wilk Nusair interpolation
   ROPT   =    0.00000   0.00000
 Ionic relaxation
   EDIFFG = -.1E-01   stopping-criterion for IOM
   NSW    =    500    number of steps for IOM
   NBLOCK =      1;   KBLOCK =    500    inner block; outer block 
   IBRION =      3    ionic relax: 0-MD 1-quasi-New 2-CG
   NFREE  =      0    steps in history (QN), initial steepest desc. (CG)
   ISIF   =      0    stress and relaxation
   IWAVPR =     11    prediction:  0-non 1-charg 2-wave 3-comb
   ISYM   =      2    0-nonsym 1-usesym 2-fastsym
   LCORR  =      T    Harris-Foulkes like correction to forces

   POTIM  = 0.1000    time-step for ionic-motion
   TEIN   =    0.0    initial temperature
   TEBEG  =    0.0;   TEEND  =   0.0 temperature during run
   SMASS  =  -3.00    Nose mass-parameter (am)
   estimated Nose-frequenzy (Omega)   =  0.10E-29 period in steps = 0.63E+47 mass=  -0.333E-26a.u.
   SCALEE = 1.0000    scale energy and forces
   NPACO  =    256;   APACO  = 10.0  distance and # of slots for P.C.
   PSTRESS=    0.0 pullay stress

  Mass of Ions in am
   POMASS =   7.01 19.00
  Ionic Valenz
   ZVAL   =   3.00  7.00
  Atomic Wigner-Seitz radii
   RWIGS  =  -1.00 -1.00
  virtual crystal weights 
   VCA    =   1.00  1.00
   NELECT =    1080.0000    total number of electrons
   NUPDOWN=      -1.0000    fix difference up-down

 DOS related values:
   EMIN   =  10.00;   EMAX   =-10.00  energy-range for DOS
   EFERMI =   0.00;   METHOD = LEGACY      
   ISMEAR =     0;   SIGMA  =   0.01  broadening in eV -4-tet -1-fermi 0-gaus

 Electronic relaxation 2 (details)
   IALGO  =     38    algorithm
   LDIAG  =      T    sub-space diagonalisation (order eigenvalues)
   LSUBROT=      F    optimize rotation matrix (better conditioning)
   TURBO    =      0    0=normal 1=particle mesh
   IRESTART =      0    0=no restart 2=restart with 2 vectors
   NREBOOT  =      0    no. of reboots
   NMIN     =      0    reboot dimension
   EREF     =   0.00    reference energy to select bands
   IMIX   =      4    mixing-type and parameters
     AMIX     =   0.40;   BMIX     =  1.00
     AMIX_MAG =   1.60;   BMIX_MAG =  1.00
     AMIN     =   0.10
     WC   =   100.;   INIMIX=   1;  MIXPRE=   1;  MAXMIX= -45

 Intra band minimization:
   WEIMIN = 0.0010     energy-eigenvalue tresh-hold
   EBREAK =  0.33E-13  absolut break condition
   DEPER  =   0.30     relativ break condition  

   TIME   =   0.40     timestep for ELM

  volume/ion in A,a.u.               =       8.16        55.06
  Fermi-wavevector in a.u.,A,eV,Ry     =   1.390557  2.627771 26.308875  1.933648
  Thomas-Fermi vector in A             =   2.514480
 
 Write flags
   LWAVE        =      F    write WAVECAR
   LDOWNSAMPLE  =      F    k-point downsampling of WAVECAR
   LCHARG       =      F    write CHGCAR
   LVTOT        =      F    write LOCPOT, total local potential
   LVHAR        =      F    write LOCPOT, Hartree potential only
   LELF         =      F    write electronic localiz. function (ELF)
   LORBIT       =      0    0 simple, 1 ext, 2 COOP (PROOUT), +10 PAW based schemes


 Dipole corrections
   LMONO  =      F    monopole corrections only (constant potential shift)
   LDIPOL =      F    correct potential (dipole corrections)
   IDIPOL =      0    1-x, 2-y, 3-z, 4-all directions 
   EPSILON=  1.0000000 bulk dielectric constant

 Exchange correlation treatment:
   GGA     =    --    GGA type
   LEXCH   =     8    internal setting for exchange type
   LIBXC   =     F    Libxc                    
   VOSKOWN =     0    Vosko Wilk Nusair interpolation
   LHFCALC =     F    Hartree Fock is set to
   LHFONE  =     F    Hartree Fock one center treatment
   AEXX    =    0.0000 exact exchange contribution

 Linear response parameters
   LEPSILON=     F    determine dielectric tensor
   LRPA    =     F    only Hartree local field effects (RPA)
   LNABLA  =     F    use nabla operator in PAW spheres
   LVEL    =     F    velocity operator in full k-point grid
   CSHIFT  =0.1000    complex shift for real part using Kramers Kronig
   OMEGAMAX=  -1.0    maximum frequency
   DEG_THRESHOLD= 0.2000000E-02 threshold for treating states as degnerate
   RTIME   =   -0.100 relaxation time in fs
  (WPLASMAI=    0.000 imaginary part of plasma frequency in eV, 0.658/RTIME)
   DFIELD  = 0.0000000 0.0000000 0.0000000 field for delta impulse in time
 
  Optional k-point grid parameters
   LKPOINTS_OPT  =     F    use optional k-point grid
   KPOINTS_OPT_MODE=     1    mode for optional k-point grid
 
 Orbital magnetization related:
   ORBITALMAG=     F  switch on orbital magnetization
   LCHIMAG   =     F  perturbation theory with respect to B field
   DQ        =  0.001000  dq finite difference perturbation B field
   LLRAUG    =     F  two centre corrections for induced B field
   LBONE     =     F  B-component reconstruction in AE one-centre
   LVGVCALC  =     T  calculate vGv susceptibility
   LVGVAPPL  =     F  apply vGv susceptibility instead of pGv for G=0

 Random number generation:
   RANDOM_GENERATOR = DEFAULT
   PCG_SEED         = not used


--------------------------------------------------------------------------------------------------------


 quickmin algorithm: (dynamic with friction)
 charge density and potential will be updated during run
 spin polarized calculation
 Variant of blocked Davidson
 Davidson routine will perform the subspace rotation
 perform sub-space diagonalisation
    after iterative eigenvector-optimisation
 modified Broyden-mixing scheme, WC =      100.0
 initial mixing is a Kerker type mixing with AMIX =  0.4000 and BMIX =      1.0000
 Hartree-type preconditioning will be used
 using additional bands           218
 reciprocal scheme for non local part
 use partial core corrections
 calculate Harris-corrections to forces 
   (improved forces if not selfconsistent)
 use gradient corrections 
 use of overlap-Matrix (Vanderbilt PP)
 Gauss-broadening in eV      SIGMA  =   0.01


--------------------------------------------------------------------------------------------------------


  energy-cutoff  :      400.00
  volume of cell :     1762.31
      direct lattice vectors                 reciprocal lattice vectors
    12.078900337  0.000000000  0.000000000     0.082788993  0.000000000  0.000000000
     0.000000000 12.078900337  0.000000000     0.000000000  0.082788993  0.000000000
     0.000000000  0.000000000 12.078900337     0.000000000  0.000000000  0.082788993

  length of vectors
    12.078900337 12.078900337 12.078900337     0.082788993  0.082788993  0.082788993


 
 k-points in units of 2pi/SCALE and weight: Gamma-point only                        
   0.00000000  0.00000000  0.00000000       1.000
 
 k-points in reciprocal lattice and weights: Gamma-point only                        
   0.00000000  0.00000000  0.00000000       1.000
 
 position of ions in fractional coordinates (direct lattice) 
   0.00018090  0.00000004  0.00000055
   0.99999948  0.00000032  0.33334061
   0.00000022  0.99999970  0.66665862
   0.99999993  0.33334094  0.99999977
   0.99999914  0.33335025  0.33335262
   0.00000209  0.33334986  0.66665249
   0.99999987  0.66665898  0.00000051
   0.99999999  0.66664988  0.33334956
   0.00000090  0.66665044  0.66664965
   0.33335889  0.99999995  0.00000055
   0.33335311  0.00001984  0.33334769
   0.33335225  0.99999958  0.66665145
   0.33335252  0.33334830  0.99999988
   0.33335830  0.33335804  0.33335897
   0.33335486  0.33335654  0.66664589
   0.33335264  0.66665219  0.00000035
   0.33335689  0.66664501  0.33335592
   0.33335607  0.66664435  0.66664342
   0.66667615  0.00000004  0.99999971
   0.66665251  0.00000159  0.33335422
   0.66665259  0.99999859  0.66665092
   0.66665147  0.33335252  0.00019236
   0.66664258  0.33335757  0.33337527
   0.66664288  0.33335708  0.66666003
   0.66665260  0.66664850  0.99999965
   0.66664308  0.66664124  0.33335988
   0.66664292  0.66664435  0.66664520
   0.99999523  0.16664805  0.16664948
   0.99999938  0.16665907  0.49999913
   0.00000053  0.16665192  0.83334940
   0.99999640  0.50000185  0.16665865
   0.00000006  0.49999986  0.49999891
   0.00000199  0.49999809  0.83334034
   0.99999782  0.83334988  0.16665031
   0.99999893  0.83334085  0.49999954
   0.99999745  0.83334989  0.83334988
   0.33335806  0.16664254  0.16663390
   0.33335035  0.16665496  0.50000487
   0.33335209  0.16664181  0.83335947
   0.33335322  0.50000126  0.16665009
   0.33334091  0.49999925  0.49999895
   0.33334732  0.49999811  0.83334909
   0.33335480  0.83336447  0.16664576
   0.33335030  0.83335405  0.49999375
   0.33335536  0.83336003  0.83336002
   0.66664096  0.16658897  0.16669144
   0.66665006  0.16664986  0.49999309
   0.66664150  0.16670292  0.83339788
   0.66665042  0.50005937  0.16669554
   0.66665887  0.49999972  0.49999287
   0.66665029  0.49994110  0.83339437
   0.66664163  0.83335373  0.16664643
   0.66665064  0.83335023  0.49999990
   0.66664133  0.83335384  0.83335381
   0.16669603  0.99999939  0.16670682
   0.16665920  0.99999975  0.49999969
   0.16669603  0.00000016  0.83329325
   0.16664328  0.33335351  0.16664550
   0.16665048  0.33335007  0.49999984
   0.16664287  0.33335374  0.83335482
   0.16664263  0.66664643  0.16664486
   0.16664990  0.66664955  0.49999996
   0.16664297  0.66664602  0.83335487
   0.49999084  0.00000255  0.16665853
   0.50000016  0.99999984  0.49999891
   0.49999467  0.99999711  0.83334052
   0.49993925  0.33334956  0.16669613
   0.49999962  0.33334073  0.49999260
   0.50005793  0.33334991  0.83339410
   0.49999731  0.66664704  0.16664940
   0.50000010  0.66665888  0.49999922
   0.50000081  0.66665315  0.83334944
   0.83339625  0.00000266  0.16659348
   0.83334091  0.00000003  0.49999895
   0.83339248  0.99999719  0.83340561
   0.83341342  0.33335996  0.16668683
   0.83334984  0.33334967  0.49999294
   0.83329949  0.33335963  0.83340264
   0.83335819  0.66663727  0.16664110
   0.83334993  0.66665028  0.49999889
   0.83335451  0.66664315  0.83335805
   0.16669580  0.16670674  0.99999942
   0.16663716  0.16664926  0.33335403
   0.16664274  0.16664536  0.66664616
   0.16665919  0.49999989  0.99999915
   0.16665019  0.49999963  0.33335048
   0.16665019  0.49999956  0.66665001
   0.16669618  0.83329313  0.99999972
   0.16664866  0.83335935  0.33335356
   0.16664310  0.83335482  0.66664634
   0.49999309  0.16665883  0.99999765
   0.50000789  0.16665760  0.33334827
   0.49999656  0.16664722  0.66664811
   0.50000001  0.49999997  0.99999770
   0.50000272  0.49999635  0.33333935
   0.49999713  0.50000254  0.66665730
   0.49999261  0.83334103  0.99999886
   0.49999270  0.83335444  0.33335011
   0.49999918  0.83334993  0.66665067
   0.83339418  0.16659399  0.99999735
   0.83335322  0.16664459  0.33335814
   0.83335911  0.16663866  0.66663840
   0.83334106  0.49999989  0.99999738
   0.83334692  0.49999701  0.33334803
   0.83335275  0.50000260  0.66664860
   0.83339432  0.83340613  0.99999913
   0.83335668  0.83335860  0.33336012
   0.83335597  0.83335855  0.66664032
   0.00004308  0.16667322  0.99999783
   0.99999821  0.16666794  0.33333186
   0.99999594  0.16666779  0.66666778
   0.00000147  0.49999999  0.99999761
   0.00000185  0.50000023  0.33332528
   0.99999798  0.49999993  0.66667435
   0.00004303  0.83332676  0.99999983
   0.99999928  0.83333273  0.33333196
   0.99999776  0.83333223  0.66666792
   0.33334368  0.16668052  0.99999628
   0.33333433  0.16667135  0.33333821
   0.33333825  0.16666440  0.66666306
   0.33332498  0.49999987  0.99999776
   0.33333022  0.50000208  0.33333195
   0.33333409  0.49999987  0.66666778
   0.33334356  0.83332050  0.00000145
   0.33333635  0.83334388  0.33333832
   0.33333628  0.83333662  0.66665993
   0.66667834  0.16665823  0.00004440
   0.66666519  0.16665192  0.33334550
   0.66666355  0.16667407  0.66667587
   0.66667372  0.49999893  0.00004398
   0.66666783  0.50001196  0.33334324
   0.66666783  0.49998941  0.66667815
   0.66667857  0.83334295  0.00000169
   0.66666207  0.83333698  0.33333366
   0.66666369  0.83333652  0.66666492
   0.00004274  0.00000013  0.16667280
   0.00000162  0.99999972  0.50000056
   0.00004348  0.99999956  0.83332654
   0.00001310  0.33333206  0.16667202
   0.99999979  0.33332552  0.50000024
   0.99998234  0.33333209  0.83333691
   0.99999750  0.66666750  0.16666730
   0.00000008  0.66667446  0.50000050
   0.99999811  0.66666829  0.83333199
   0.33334395  0.00000489  0.16667957
   0.33332480  0.00000439  0.50000046
   0.33334318  0.99999980  0.83331975
   0.33332065  0.33333948  0.16666695
   0.33333210  0.33333323  0.50000131
   0.33335203  0.33333835  0.83334083
   0.33333676  0.66666220  0.16666452
   0.33333217  0.66666890  0.49999937
   0.33333597  0.66666183  0.83333587
   0.66667848  0.99998422  0.16666126
   0.66667383  0.99999968  0.50000023
   0.66667850  0.00001540  0.83334766
   0.66666363  0.33333465  0.16674393
   0.66666801  0.33333224  0.50001916
   0.66666357  0.33333449  0.83340951
   0.66666344  0.66668119  0.16666771
   0.66666765  0.66666780  0.50000016
   0.66666366  0.66664982  0.83334121
   0.16666292  0.16666844  0.16666697
   0.16666722  0.16666688  0.50000025
   0.16666335  0.16666670  0.83333229
   0.16666761  0.49999957  0.16666666
   0.16667425  0.50000051  0.49999994
   0.16666759  0.50000084  0.83333294
   0.16666360  0.83333243  0.16666770
   0.16666796  0.83333307  0.49999974
   0.16666312  0.83333238  0.83333222
   0.50000170  0.16666415  0.16666719
   0.50000034  0.16667439  0.50000530
   0.50000875  0.16667170  0.83333232
   0.49999626  0.50000429  0.16667411
   0.50000021  0.50000059  0.50000514
   0.50000397  0.49999608  0.83332579
   0.50000565  0.83333208  0.16666801
   0.49999966  0.83332552  0.49999954
   0.50000437  0.83333208  0.83333197
   0.83334038  0.16665574  0.16665939
   0.83333216  0.16666857  0.50000477
   0.83333279  0.16666329  0.83334061
   0.83333578  0.50000376  0.16666833
   0.83332546  0.50000009  0.50000492
   0.83332823  0.49999632  0.83333154
   0.83333570  0.83334036  0.16665921
   0.83333210  0.83333129  0.50000000
   0.83333743  0.83334038  0.83334029
   0.16675506  0.99999978  0.99999992
   0.16667215  0.00000449  0.33334775
   0.16667213  0.99999970  0.66665205
   0.16667216  0.33334785  0.00000156
   0.16666213  0.33333707  0.33333522
   0.16666322  0.33333601  0.66666350
   0.16667212  0.66665207  0.00000008
   0.16666434  0.66666501  0.33333591
   0.16666322  0.66666400  0.66666373
   0.50002005  0.99999987  0.99999763
   0.50000015  0.00000244  0.33332536
   0.50000054  0.00000167  0.66667426
   0.50000154  0.33332573  0.00004378
   0.49998982  0.33333329  0.33334322
   0.50001128  0.33333220  0.66667838
   0.50000054  0.66667418  0.99999795
   0.49999933  0.66667081  0.33333198
   0.50000077  0.66666585  0.66666754
   0.83339835  0.00000001  0.99999776
   0.83333704  0.99999819  0.33331633
   0.83333668  0.00000182  0.66668337
   0.83333549  0.33331667  0.00004436
   0.83334808  0.33333670  0.33334780
   0.83332542  0.33333680  0.66667361
   0.83333669  0.66668331  0.99999779
   0.83333632  0.66666513  0.33333654
   0.83333598  0.66666131  0.66666319
 
 position of ions in cartesian coordinates  (Angst):
   0.00218508  0.00000046  0.00000667
  12.07889400  0.00000388  4.02638807
   0.00000263 12.07889668  8.05250302
  12.07889949  4.02639205 12.07889757
  12.07888995  4.02650443  4.02653306
   0.00002520  4.02649972  8.05242894
  12.07889871  8.05250737  0.00000620
  12.07890021  8.05239742  4.02649610
   0.00001092  8.05240422  8.05239467
   4.02660886 12.07889978  0.00000665
   4.02653896  0.00023969  4.02647353
   4.02652865 12.07889531  8.05241646
   4.02653185  4.02648086 12.07889886
   4.02660167  4.02659853  4.02660973
   4.02656018  4.02658036  8.05234927
   4.02653326  8.05242535  0.00000421
   4.02658468  8.05233866  4.02657295
   4.02657476  8.05233063  8.05231949
   8.05271477  0.00000053 12.07889689
   8.05242927  0.00001916  4.02655244
   8.05243018 12.07888335  8.05241008
   8.05241672  4.02653189  0.00232348
   8.05230931  4.02659283  4.02680667
   8.05231292  4.02658695  8.05252006
   8.05243030  8.05238079 12.07889606
   8.05231529  8.05229315  4.02662071
   8.05231338  8.05233064  8.05234088
  12.07884272  2.01292523  2.01294245
  12.07889290  2.01305829  6.03943968
   0.00000639  2.01297188 10.06594437
  12.07885685  6.03947253  2.01305327
   0.00000071  6.03944850  6.03943702
   0.00002405  6.03942714 10.06583494
  12.07887396 10.06595013  2.01295248
  12.07888737 10.06584103  6.03944458
  12.07886957 10.06595021 10.06595014
   4.02659877  2.01285867  2.01275432
   4.02650569  2.01300863  6.03950898
   4.02652671  2.01284976 10.06606600
   4.02654028  6.03946542  2.01294980
   4.02639161  6.03944112  6.03943750
   4.02646907  6.03942738 10.06594062
   4.02655939 10.06612637  2.01289749
   4.02650508 10.06600046  6.03937472
   4.02656611 10.06607271 10.06607261
   8.05228966  2.01221161  2.01344926
   8.05239963  2.01294702  6.03936668
   8.05229629  2.01358791 10.06652991
   8.05240401  6.04016731  2.01349879
   8.05250608  6.03944680  6.03936401
   8.05240246  6.03873868 10.06648757
   8.05229782 10.06599667  2.01290565
   8.05240665 10.06595435  6.03944895
   8.05229420 10.06599800 10.06599763
   2.01350472 12.07889295  2.01363506
   2.01305992 12.07889730  6.03944647
   2.01350477  0.00000196 10.06526610
   2.01286755  4.02654388  2.01289440
   2.01295458  4.02650228  6.03944818
   2.01286262  4.02654659 10.06600977
   2.01285968  8.05235579  2.01288663
   2.01294757  8.05239342  6.03944965
   2.01286383  8.05235082 10.06601044
   6.03933955  0.00003075  2.01305173
   6.03945206 12.07889840  6.03943694
   6.03938573 12.07886545 10.06583715
   6.03871639  4.02649608  2.01350599
   6.03944559  4.02638942  6.03936076
   6.04014990  4.02650036 10.06648427
   6.03941769  8.05236311  2.01294148
   6.03945143  8.05250615  6.03944072
   6.03945999  8.05243695 10.06594481
  10.06651027  0.00003207  2.01226599
  10.06584177  0.00000037  6.03943753
  10.06646466 12.07886639 10.06662329
  10.06671770  4.02662179  2.01339366
  10.06594971  4.02649741  6.03936489
  10.06534153  4.02661775 10.06658748
  10.06605049  8.05224519  2.01284129
  10.06595072  8.05240229  6.03943681
  10.06600602  8.05231621 10.06604880
   2.01350191  2.01363406 12.07889332
   2.01279363  2.01293982  4.02655007
   2.01286104  2.01289271  8.05235251
   2.01305972  6.03944879 12.07889009
   2.01295106  6.03944575  4.02650728
   2.01295100  6.03944485  8.05239901
   2.01350651 10.06526462 12.07889694
   2.01293257 10.06606456  4.02654439
   2.01286543 10.06600979  8.05235473
   6.03936669  2.01305541 12.07887194
   6.03954549  2.01304055  4.02648049
   6.03940863  2.01291512  8.05237604
   6.03945034  6.03944983 12.07887255
   6.03948307  6.03940611  4.02637282
   6.03941545  6.03948090  8.05248714
   6.03936096 10.06584329 12.07888658
   6.03936205 10.06600527  4.02650278
   6.03944022 10.06595075  8.05240699
  10.06648521  2.01227223 12.07886828
  10.06599043  2.01288336  4.02659969
  10.06606158  2.01281171  8.05225881
  10.06584358  6.03944882 12.07886863
  10.06591434  6.03941410  4.02647766
  10.06598479  6.03948159  8.05238202
  10.06648688 10.06662960 12.07888984
  10.06603223 10.06605545  4.02662372
  10.06602373 10.06605483  8.05228202
   0.00052041  2.01322916 12.07887418
  12.07887868  2.01316538  4.02628226
  12.07885129  2.01316361  8.05261367
   0.00001775  6.03945008 12.07887151
   0.00002236  6.03945295  4.02620282
  12.07887590  6.03944934  8.05269305
   0.00051970 10.06567087 12.07889828
  12.07889165 10.06574305  4.02628347
  12.07887324 10.06573699  8.05261532
   4.02642511  2.01331743 12.07885539
   4.02631220  2.01320663  4.02635900
   4.02635951  2.01312271  8.05255663
   4.02619924  6.03944857 12.07887327
   4.02626245  6.03947529  4.02628336
   4.02630920  6.03944856  8.05261363
   4.02642366 10.06559527  0.00001746
   4.02633652 10.06587763  4.02636031
   4.02633570 10.06579001  8.05251891
   8.05274120  2.01304809  0.00053630
   8.05258241  2.01297192  4.02644710
   8.05256254  2.01323946  8.05271144
   8.05268544  6.03943724  0.00053124
   8.05261432  6.03959457  4.02641978
   8.05261433  6.03932230  8.05273894
   8.05274398 10.06586649  0.00002042
   8.05254472 10.06579427  4.02630405
   8.05256427 10.06578878  8.05257915
   0.00051621  0.00000163  2.01322419
   0.00001955 12.07889698  6.03945691
   0.00052521 12.07889504 10.06566826
   0.00015826  4.02628478  2.01321467
  12.07889776  4.02620577  6.03945302
  12.07868706  4.02628514 10.06579344
  12.07887014  8.05261034  2.01315775
   0.00000101  8.05269432  6.03945621
  12.07887747  8.05261986 10.06573400
   4.02642839  0.00005911  2.01330594
   4.02619703  0.00005307  6.03945577
   4.02641905 12.07889790 10.06558620
   4.02614695  4.02637440  2.01315354
   4.02628519  4.02629881  6.03946594
   4.02652592  4.02636070 10.06584079
   4.02634151  8.05254631  2.01312418
   4.02628601  8.05262716  6.03944256
   4.02633194  8.05254179 10.06578088
   8.05274289 12.07870969  2.01308476
   8.05268673 12.07889642  6.03945295
   8.05274311  0.00018603 10.06592339
   8.05256356  4.02631605  2.01408335
   8.05261648  4.02628692  6.03968155
   8.05256285  4.02631412 10.06667036
   8.05256121  8.05277570  2.01316264
   8.05261213  8.05261395  6.03945216
   8.05256389  8.05239674 10.06584548
   2.01310479  2.01317151  2.01315378
   2.01315678  2.01315262  6.03945318
   2.01311001  2.01315050 10.06573765
   2.01316142  6.03944495  2.01314995
   2.01324168  6.03945631  6.03944942
   2.01316117  6.03946035 10.06574553
   2.01311306 10.06573940  2.01316259
   2.01316565 10.06574711  6.03944704
   2.01310725 10.06573871 10.06573686
   6.03947067  2.01311963  2.01315641
   6.03945431  2.01324330  6.03951423
   6.03955582  2.01321084 10.06573810
   6.03940502  6.03950201  2.01323996
   6.03945276  6.03945726  6.03951222
   6.03949811  6.03940286 10.06565920
   6.03951837 10.06573515  2.01316632
   6.03944605 10.06565590  6.03944462
   6.03950292 10.06573520 10.06573387
  10.06583541  2.01301811  2.01306218
  10.06573606  2.01317305  6.03950773
  10.06574373  2.01310926 10.06583818
  10.06577986  6.03949562  2.01317020
  10.06565516  6.03945121  6.03950955
  10.06568869  6.03940577 10.06572866
  10.06577890 10.06583521  2.01306001
  10.06573538 10.06572562  6.03945012
  10.06579981 10.06583534 10.06583435
   2.01421770 12.07889772 12.07889941
   2.01321629  0.00005427  4.02647425
   2.01321603 12.07889676  8.05242365
   2.01321644  4.02647551  0.00001890
   2.01309521  4.02634521  4.02632291
   2.01310837  4.02633250  8.05256194
   2.01321596  8.05242395  0.00000092
   2.01312190  8.05258021  4.02633128
   2.01310845  8.05256797  8.05256476
   6.03969233 12.07889883 12.07887166
   6.03945201  0.00002943  4.02620380
   6.03945673  0.00002023  8.05269194
   6.03946874  4.02620823  0.00052887
   6.03932715  4.02629954  4.02641947
   6.03958643  4.02628643  8.05274176
   6.03945665  8.05269092 12.07887556
   6.03944209  8.05265023  4.02628382
   6.03945944  8.05259037  8.05261072
  10.06653561  0.00000014 12.07887325
  10.06579500 12.07887847  4.02609471
  10.06579075  0.00002203  8.05280198
  10.06577633  4.02609885  0.00053582
  10.06592838  4.02634081  4.02647485
  10.06565472  4.02634203  8.05268409
  10.06579082  8.05280125 12.07887365
  10.06578635  8.05258169  4.02633885
  10.06578226  8.05253554  8.05255824
 


--------------------------------------------------------------------------------------------------------


 k-point   1 :   0.0000 0.0000 0.0000  plane waves:   31919

 maximum and minimum number of plane-waves per node :     31919    31919

 maximum number of plane-waves:     31919
 maximum index in each direction: 
   IXMAX=   19   IYMAX=   19   IZMAX=   19
   IXMIN=  -19   IYMIN=  -19   IZMIN=  -19


 serial   3D FFT for wavefunctions
 parallel 3D FFT for charge:
    minimum data exchange during FFTs selected (reduces bandwidth)


 total amount of memory used by VASP MPI-rank0   828122. kBytes
=======================================================================

   base      :      30000. kBytes
   nonl-proj :     114401. kBytes
   fftplans  :      71598. kBytes
   grid      :     206643. kBytes
   one-center:       1327. kBytes
   wavefun   :     404153. kBytes
 
     INWAV:  cpu time      0.0000: real time      0.0003
 Broyden mixing: mesh for mixing (old mesh)
   NGX = 39   NGY = 39   NGZ = 39
  (NGX  =160   NGY  =160   NGZ  =160)
  gives a total of  59319 points

 initial charge density was supplied:
 charge density of overlapping atoms calculated
 number of electron    1080.0000000 magnetization     216.0000000
 keeping initial charge density in first step


--------------------------------------------------------------------------------------------------------


 Maximum index for augmentation-charges          1861 (set IRDMAX)


--------------------------------------------------------------------------------------------------------


 First call to EWALD:  gamma=   0.147
 Maximum number of real-space cells 3x 3x 3
 Maximum number of reciprocal cells 3x 3x 3

    FEWALD:  cpu time      0.1315: real time      0.1320


--------------------------------------- Ionic step        1  -------------------------------------------




--------------------------------------- Iteration      1(   1)  ---------------------------------------


    POTLOK:  cpu time      0.1531: real time      0.1858
    SETDIJ:  cpu time      0.3928: real time      0.3938
     EDDAV:  cpu time      5.8899: real time      5.9112
       DOS:  cpu time      0.0003: real time      0.0003
    --------------------------------------------
      LOOP:  cpu time      6.4361: real time      6.4911

 eigenvalue-minimisations  :  3032
 total energy-change (2. order) : 0.1033100E+05  (-0.4488696E+05)
 number of electron    1080.0000000 magnetization     216.0000000
 augmentation part     1080.0000000 magnetization     216.0000000

 Free energy of the ion-electron system (eV)
  ---------------------------------------------------
  alpha Z        PSCENC =      2168.48047769
  Ewald energy   TEWEN  =    -60196.02088144
  -Hartree energ DENC   =    -22994.31978885
  -exchange      EXHF   =         0.00000000
  -V(xc)+E(xc)   XCENC  =      5434.83817875
  PAW double counting   =     66806.42260033   -69013.58704873
  entropy T*S    EENTRO =        -0.00000000
  eigenvalues    EBANDS =     -4986.24619099
  atomic energy  EATOM  =     93111.43275132
  Solvation  Ediel_sol  =         0.00000000
  ---------------------------------------------------
  free energy    TOTEN  =     10331.00009808 eV

  energy without entropy =    10331.00009808  energy(sigma->0) =    10331.00009808


--------------------------------------------------------------------------------------------------------




--------------------------------------- Iteration      1(   2)  ---------------------------------------


     EDDAV:  cpu time      5.8511: real time      5.8728
       DOS:  cpu time      0.0002: real time      0.0002
    --------------------------------------------
      LOOP:  cpu time      5.8513: real time      5.8730

 eigenvalue-minimisations  :  3096
 total energy-change (2. order) :-0.1011551E+05  (-0.9461865E+04)
 number of electron    1080.0000000 magnetization     216.0000000
 augmentation part     1080.0000000 magnetization     216.0000000

 Free energy of the ion-electron system (eV)
  ---------------------------------------------------
  alpha Z        PSCENC =      2168.48047769
[...]
     12.07890      8.05251      0.00001        -0.000267      0.000106     -0.000158
     12.07890      8.05240      4.02650        -0.000001      0.000218     -0.000044
      0.00001      8.05240      8.05239        -0.000217      0.000047      0.000171
      4.02661     12.07890      0.00001        -0.000542     -0.000018     -0.000158
      4.02654      0.00024      4.02647         0.000254     -0.000460      0.000931
      4.02653     12.07890      8.05242         0.000389      0.000037     -0.000803
      4.02653      4.02648     12.07890         0.000347      0.000914     -0.000378
      4.02660      4.02660      4.02661        -0.001070     -0.000139      0.000349
      4.02656      4.02658      8.05235         0.000829     -0.000041      0.000641
      4.02653      8.05243      0.00000         0.000329     -0.000837     -0.000067
      4.02658      8.05234      4.02657        -0.000168      0.000110     -0.000029
      4.02657      8.05233      8.05232        -0.000031      0.000062      0.000067
      8.05271      0.00000     12.07890        -0.000368     -0.000001     -0.000247
      8.05243      0.00002      4.02655         0.000540     -0.000972     -0.000613
      8.05243     12.07888      8.05241         0.000534      0.000884      0.001464
      8.05242      4.02653      0.00232         0.000580     -0.001065     -0.003873
      8.05231      4.02659      4.02681         0.000321     -0.000183     -0.000741
      8.05231      4.02659      8.05252         0.000229     -0.000214     -0.000270
      8.05243      8.05238     12.07890         0.000532      0.001019     -0.000278
      8.05232      8.05229      4.02662         0.000130      0.001239      0.000213
      8.05231      8.05233      8.05234         0.000221     -0.000692      0.000677
     12.07884      2.01293      2.01294         0.000847     -0.000150     -0.000053
     12.07889      2.01306      6.03944         0.000038      0.000061      0.000227
      0.00001      2.01297     10.06594        -0.000126      0.000313     -0.000187
     12.07886      6.03947      2.01305         0.000598      0.000250     -0.000043
      0.00000      6.03945      6.03944        -0.000083      0.000024      0.000215
      0.00002      6.03943     10.06583        -0.000447     -0.000220     -0.000179
     12.07887     10.06595      2.01295         0.000349     -0.000097      0.000077
     12.07889     10.06584      6.03944         0.000127     -0.000086      0.000040
     12.07887     10.06595     10.06595         0.000444     -0.000091     -0.000111
      4.02660      2.01286      2.01275        -0.000204      0.000354      0.000867
      4.02651      2.01301      6.03951        -0.000188     -0.000114     -0.000037
      4.02653      2.01285     10.06607         0.000888      0.000991     -0.000837
      4.02654      6.03947      2.01295        -0.000714      0.000384     -0.000110
      4.02639      6.03944      6.03944        -0.000044      0.000146      0.000220
      4.02647      6.03943     10.06594         0.000378     -0.000254     -0.000131
      4.02656     10.06613      2.01290         0.000422     -0.000867      0.000445
      4.02651     10.06600      6.03937        -0.000168     -0.000150      0.000317
      4.02657     10.06607     10.06607         0.000269     -0.000725     -0.000760
      8.05229      2.01221      2.01345         0.000738      0.002220     -0.001780
      8.05240      2.01295      6.03937         0.000094      0.000134      0.001460
      8.05230      2.01359     10.06653         0.000669     -0.002953     -0.000915
      8.05240      6.04017      2.01350         0.000050     -0.002526     -0.001193
      8.05251      6.03945      6.03936         0.000130      0.000052      0.001451
      8.05240      6.03874     10.06649         0.000021      0.002521     -0.001470
      8.05230     10.06600      2.01291         0.000629      0.000382     -0.000275
      8.05241     10.06595      6.03945        -0.000016     -0.000191     -0.000051
      8.05229     10.06600     10.06600         0.000694      0.000365      0.000474
      2.01350     12.07889      2.01364        -0.001295      0.000121     -0.002499
      2.01306     12.07890      6.03945         0.000163      0.000042      0.000059
      2.01350      0.00000     10.06527        -0.001293     -0.000068      0.002446
      2.01287      4.02654      2.01289        -0.000030      0.000439      0.000423
      2.01295      4.02650      6.03945         0.000016     -0.000133      0.000020
      2.01286      4.02655     10.06601         0.000057      0.000386     -0.000295
      2.01286      8.05236      2.01289         0.000090     -0.000422      0.000418
      2.01295      8.05239      6.03945         0.000123      0.000231      0.000009
      2.01286      8.05235     10.06601         0.000022     -0.000325     -0.000417
      6.03934      0.00003      2.01305         0.001250     -0.000481     -0.000006
      6.03945     12.07890      6.03944        -0.000035      0.000027      0.000215
      6.03939     12.07887     10.06584         0.001709      0.000531     -0.000218
      6.03872      4.02650      2.01351         0.002813     -0.000053     -0.001319
      6.03945      4.02639      6.03936         0.000084     -0.000029      0.001503
      6.04015      4.02650     10.06648        -0.002308     -0.000080     -0.001394
      6.03942      8.05236      2.01294        -0.000083      0.000687      0.000026
      6.03945      8.05251      6.03944         0.000004      0.000139      0.000168
      6.03946      8.05244     10.06594         0.000476     -0.000465     -0.000211
     10.06651      0.00003      2.01227        -0.001197     -0.000512      0.002513
     10.06584      0.00000      6.03944         0.000020     -0.000007      0.000209
     10.06646     12.07887     10.06662        -0.001651      0.000502     -0.002738
     10.06672      4.02662      2.01339        -0.002879     -0.000719     -0.001441
     10.06595      4.02650      6.03936        -0.000095     -0.000028      0.001424
     10.06534      4.02662     10.06659         0.002305     -0.000700     -0.001220
     10.06605      8.05225      2.01284        -0.000017      0.001248     -0.000212
     10.06595      8.05240      6.03944        -0.000122      0.000028      0.000223
     10.06601      8.05232     10.06605        -0.000513      0.000174     -0.000030
      2.01350      2.01363     12.07889        -0.001312     -0.002483      0.000025
      2.01279      2.01294      4.02655         0.000292      0.000335      0.000321
      2.01286      2.01289      8.05235         0.000015      0.000302     -0.000396
      2.01306      6.03945     12.07889         0.000165      0.000020      0.000070
      2.01295      6.03945      4.02651         0.000068      0.000063     -0.000248
      2.01295      6.03944      8.05240         0.000073      0.000099      0.000126
      2.01351     10.06526     12.07890        -0.001273      0.002465     -0.000036
      2.01293     10.06606      4.02654        -0.000228     -0.000522      0.000435
      2.01287     10.06601      8.05235         0.000057     -0.000400     -0.000395
      6.03937      2.01306     12.07887         0.001510      0.000118      0.000347
      6.03955      2.01304      4.02648        -0.000571     -0.000585      0.000391
      6.03941      2.01292      8.05238         0.000737      0.000615      0.000654
      6.03945      6.03945     12.07887        -0.000019      0.000010      0.000381
      6.03948      6.03941      4.02637        -0.000478      0.000682      0.000411
      6.03942      6.03948      8.05249         0.000566     -0.000486      0.000593
      6.03936     10.06584     12.07889         0.001460     -0.000127      0.000125
      6.03936     10.06601      4.02650         0.000544     -0.000232     -0.000158
      6.03944     10.06595      8.05241         0.000116     -0.000117     -0.000021
     10.06649      2.01227     12.07887        -0.001439      0.002647      0.000424
     10.06599      2.01288      4.02660         0.000289     -0.000624     -0.000226
     10.06606      2.01281      8.05226        -0.000784      0.000438      0.001199
     10.06584      6.03945     12.07887        -0.000008      0.000000      0.000400
     10.06591      6.03941      4.02648         0.000431      0.000531      0.000463
     10.06598      6.03948      8.05238        -0.000649     -0.000491      0.000528
     10.06649     10.06663     12.07889        -0.001423     -0.002643      0.000067
     10.06603     10.06606      4.02662        -0.000343      0.000087     -0.000778
     10.06602     10.06605      8.05228        -0.000186      0.000070      0.000664
      0.00052      2.01323     12.07887        -0.000551     -0.000182      0.000284
     12.07888      2.01317      4.02628         0.000000     -0.000103      0.000152
     12.07885      2.01316      8.05261         0.000645     -0.000228     -0.000252
      0.00002      6.03945     12.07887        -0.000301     -0.000016      0.000310
      0.00002      6.03945      4.02620        -0.000294     -0.000051      0.000207
     12.07888      6.03945      8.05269         0.000432      0.000029     -0.000313
      0.00052     10.06567     12.07890        -0.000544      0.000191      0.000079
     12.07889     10.06574      4.02628         0.000252      0.000208      0.000167
     12.07887     10.06574      8.05262         0.000274      0.000190     -0.000236
      4.02643      2.01332     12.07886         0.000159     -0.000565      0.000368
      4.02631      2.01321      4.02636         0.000415     -0.000223     -0.000338
      4.02636      2.01312      8.05256        -0.000328     -0.000177      0.000151
      4.02620      6.03945     12.07887         0.000545      0.000011      0.000304
      4.02626      6.03948      4.02628         0.000532     -0.000260      0.000163
      4.02631      6.03945      8.05261        -0.000205      0.000053     -0.000280
      4.02642     10.06560      0.00002         0.000167      0.000608      0.000004
      4.02634     10.06588      4.02636         0.000012      0.000013     -0.000324
      4.02634     10.06579      8.05252         0.000060      0.000176      0.000325
      8.05274      2.01305      0.00054        -0.000237      0.000096     -0.000602
      8.05258      2.01297      4.02645        -0.000234      0.000366      0.000464
      8.05256      2.01324      8.05271        -0.000144     -0.000333     -0.000485
      8.05269      6.03944      0.00053         0.000051      0.000041     -0.000578
      8.05261      6.03959      4.02642        -0.000230     -0.000353      0.000172
      8.05261      6.03932      8.05274        -0.000221      0.000267     -0.000200
      8.05274     10.06587      0.00002        -0.000248     -0.000137     -0.000306
      8.05254     10.06579      4.02630        -0.000090      0.000059      0.000769
      8.05256     10.06579      8.05258        -0.000160      0.000042     -0.000173
      0.00052      0.00000      2.01322        -0.000519     -0.000002     -0.000154
      0.00002     12.07890      6.03946        -0.000314      0.000036     -0.000146
      0.00053     12.07890     10.06567        -0.000578      0.000040      0.000219
      0.00016      4.02628      2.01321        -0.000379      0.000199      0.000083
     12.07890      4.02621      6.03945         0.000108      0.000250      0.000012
     12.07869      4.02629     10.06579         0.000986      0.000189      0.000430
     12.07887      8.05261      2.01316         0.000296     -0.000177     -0.000152
      0.00000      8.05269      6.03946         0.000034     -0.000266     -0.000143
     12.07888      8.05262     10.06573         0.000278     -0.000228      0.000221
      4.02643      0.00006      2.01331         0.000141     -0.000093     -0.000551
      4.02620      0.00005      6.03946         0.000566     -0.000052     -0.000144
      4.02642     12.07890     10.06559         0.000190     -0.000007      0.000620
      4.02615      4.02637      2.01315         0.000743     -0.000289      0.000161
      4.02629      4.02630      6.03947         0.000159      0.000214     -0.000021
      4.02653      4.02636     10.06584        -0.000666     -0.000258      0.000393
      4.02634      8.05255      2.01312         0.000002      0.000318     -0.000141
      4.02629      8.05263      6.03944         0.000161     -0.000220     -0.000119
      4.02633      8.05254     10.06578         0.000059      0.000297      0.000187
      8.05274     12.07871      2.01308        -0.000249      0.000745      0.000411
      8.05269     12.07890      6.03945         0.000044      0.000036      0.000016
      8.05274      0.00019     10.06592        -0.000238     -0.000685      0.000100
      8.05256      4.02632      2.01408        -0.000210      0.000470     -0.001530
      8.05262      4.02629      6.03968        -0.000260      0.000159     -0.002054
      8.05256      4.02631     10.06667        -0.000129      0.000434     -0.001110
      8.05256      8.05278      2.01316        -0.000121     -0.001175      0.000235
      8.05261      8.05261      6.03945        -0.000188     -0.000174      0.000017
      8.05256      8.05240     10.06585        -0.000161      0.000235      0.000280
      2.01310      2.01317      2.01315         0.001009     -0.000192     -0.000073
      2.01316      2.01315      6.03945        -0.000224      0.000187     -0.000004
      2.01311      2.01315     10.06574         0.000984      0.000219      0.000000
      2.01316      6.03944      2.01315        -0.000217      0.000192      0.000050
      2.01324      6.03946      6.03945        -0.000219     -0.000079     -0.000022
      2.01316      6.03946     10.06575        -0.000221     -0.000260     -0.000110
      2.01311     10.06574      2.01316         0.001027      0.000137      0.000006
      2.01317     10.06575      6.03945        -0.000209      0.000026     -0.000072
      2.01311     10.06574     10.06574         0.001044      0.000032      0.000072
      6.03947      2.01312      2.01316        -0.000856     -0.000169      0.000889
      6.03945      2.01324      6.03951        -0.000002     -0.000134     -0.000748
      6.03956      2.01321     10.06574        -0.000645     -0.000131      0.001221
      6.03941      6.03950      2.01324        -0.000107      0.000006      0.000854
      6.03945      6.03946      6.03951        -0.000056     -0.000092     -0.000785
      6.03950      6.03940     10.06566         0.000054     -0.000081      0.001272
      6.03952     10.06574      2.01317        -0.001050      0.000306     -0.000221
      6.03945     10.06566      6.03944        -0.000029      0.000360     -0.000030
      6.03950     10.06574     10.06573        -0.000544      0.000198      0.000167
     10.06584      2.01302      2.01306         0.001196     -0.000217      0.000920
     10.06574      2.01317      6.03951         0.000140     -0.000434     -0.000713
     10.06574      2.01311     10.06584         0.001045     -0.000053      0.001161
     10.06578      6.03950      2.01317         0.000231      0.000091      0.000648
     10.06566      6.03945      6.03951         0.000274     -0.000017     -0.000755
     10.06569      6.03941     10.06573         0.000084     -0.000112      0.001469
     10.06578     10.06584      2.01306         0.001388      0.000137     -0.000143
     10.06574     10.06573      6.03945         0.000152      0.000443     -0.000042
     10.06580     10.06584     10.06583         0.000867      0.000150      0.000106
      2.01422     12.07890     12.07890        -0.001741      0.000028      0.000072
      2.01322      0.00005      4.02647         0.000079     -0.000084     -0.000584
      2.01322     12.07890      8.05242         0.000077      0.000058      0.000521
      2.01322      4.02648      0.00002         0.000076     -0.000558     -0.000275
      2.01310      4.02635      4.02632        -0.000015      0.000124      0.000429
      2.01311      4.02633      8.05256        -0.000051      0.000111      0.000135
      2.01322      8.05242      0.00000         0.000074      0.000548      0.000040
      2.01312      8.05258      4.02633        -0.000082     -0.000102      0.000087
      2.01311      8.05257      8.05256        -0.000058     -0.000152     -0.000119
      6.03969     12.07890     12.07887        -0.002185      0.000024      0.000311
      6.03945      0.00003      4.02620         0.000058      0.000314      0.000205
      6.03946      0.00002      8.05269        -0.000044     -0.000327     -0.000313
      6.03947      4.02621      0.00053        -0.000060      0.000242     -0.000540
      6.03933      4.02630      4.02642         0.000171      0.000190      0.000192
      6.03959      4.02629      8.05274        -0.000437      0.000178     -0.000259
      6.03946      8.05269     12.07888        -0.000001     -0.000242      0.000268
      6.03944      8.05265      4.02628        -0.000064     -0.000565      0.000136
      6.03946      8.05259      8.05261        -0.000197      0.000168     -0.000217
     10.06654      0.00000     12.07887        -0.000887      0.000008      0.000290
     10.06580     12.07888      4.02609         0.000377      0.000337      0.000877
     10.06579      0.00002      8.05280         0.000483     -0.000341     -0.000983
     10.06578      4.02610      0.00054         0.000489      0.000918     -0.000603
     10.06593      4.02634      4.02647        -0.000247      0.000105      0.000071
     10.06565      4.02634      8.05268         0.000432      0.000055     -0.000092
     10.06579      8.05280     12.07887         0.000439     -0.000921      0.000301
     10.06579      8.05258      4.02634         0.000070     -0.000414      0.000017
     10.06578      8.05254      8.05256         0.000182      0.000289     -0.000141
 -----------------------------------------------------------------------------------
    total drift:                                0.000033     -0.000022     -0.000221


--------------------------------------------------------------------------------------------------------



  FREE ENERGIE OF THE ION-ELECTRON SYSTEM (eV)
  ---------------------------------------------------
  free  energy   TOTEN  =     -1048.23895550 eV

  energy  without entropy=    -1048.23895550  energy(sigma->0) =    -1048.23895550
 


--------------------------------------------------------------------------------------------------------


    POTLOK:  cpu time      0.5036: real time      0.5051


--------------------------------------------------------------------------------------------------------




--------------------------------------------------------------------------------------------------------


  
 reached required accuracy - stopping structural energy minimisation
     LOOP+:  cpu time    153.8448: real time    154.4202
    4ORBIT:  cpu time      0.0000: real time      0.0000

 total amount of memory used by VASP MPI-rank0   828122. kBytes
=======================================================================

   base      :      30000. kBytes
   nonl-proj :     114401. kBytes
   fftplans  :      71598. kBytes
   grid      :     206643. kBytes
   one-center:       1327. kBytes
   wavefun   :     404153. kBytes
 
  
  
 General timing and accounting informations for this job:
 ========================================================
  
                  Total CPU time used (sec):      167.502
                            User time (sec):      165.281
                          System time (sec):        2.221
                         Elapsed time (sec):      168.623
  
                   Maximum memory used (kb):     2307448.
                   Average memory used (kb):          N/A
  
                          Minor page faults:       233803
                          Major page faults:           21
                 Voluntary context switches:        10944
