 vasp.6.4.2 20Jul23 (build Jun  3 2025 15:36:07) complex                         
 executed on              LinuxNV date 2025.06.27  12:57:04
 running    7 mpi-ranks, with    1 threads/rank, on    7 nodes
 each image running on    1 cores
 distrk:  each k-point on    1 cores,    1 groups
 distr:  one band on NCORE=   1 cores,    1 groups
 OpenACC runtime initialized ...    7 GPUs detected


--------------------------------------------------------------------------------------------------------


 INCAR:
   SYSTEM = Si
   ISTART = 1
   ICHARG = 2
   NCORE = 8
   ISPIN = 2
   NELECT = 1080
   NELM = 20
   ENCUT = 400
   PREC = Accurate
   ISMEAR = 0
   SIGMA = 0.01
   EDIFF = 1E-10
   IBRION = 3
   NSW = 500
   POTIM = 0
   ISIF = 0
   IOPT = 1
   EDIFFG = -0.010
   ICHAIN = 0
   IMAGES = 7
   SPRING = -5.0
   LCLIMB = .FALSE.

 POTCAR:   PAW_PBE F 08Apr2002                    
 POTCAR:    PAW_PBE Li_sv 10Sep2004               
 -----------------------------------------------------------------------------
|                                                                             |
|           W    W    AA    RRRRR   N    N  II  N    N   GGGG   !!!           |
|           W    W   A  A   R    R  NN   N  II  NN   N  G    G  !!!           |
|           W    W  A    A  R    R  N N  N  II  N N  N  G       !!!           |
|           W WW W  AAAAAA  RRRRR   N  N N  II  N  N N  G  GGG   !            |
|           WW  WW  A    A  R   R   N   NN  II  N   NN  G    G                |
|           W    W  A    A  R    R  N    N  II  N    N   GGGG   !!!           |
|                                                                             |
|     You use a magnetic or noncollinear calculation, but did not specify     |
|     the initial magnetic moment with the MAGMOM tag. Note that a            |
|     default of 1 will be used for all atoms. This ferromagnetic setup       |
|     may break the symmetry of the crystal, in particular it may rule        |
|     out finding an antiferromagnetic solution. Thence, we recommend         |
|     setting the initial magnetic moment manually or verifying carefully     |
|     that this magnetic setup is desired.                                    |
|                                                                             |
 -----------------------------------------------------------------------------

 POTCAR:   PAW_PBE F 08Apr2002                    
   VRHFIN =F: s2p5                                                                                  
   LEXCH  = PE                                                                                      
   EATOM  =   659.4942 eV,   48.4715 Ry                                                             
                                                                                                    
   TITEL  = PAW_PBE F 08Apr2002                                                                     
   LULTRA =        F    use ultrasoft PP ?                                                          
   IUNSCR =        0    unscreen: 0-lin 1-nonlin 2-no                                               
   RPACOR =     .000    partial core radius                                                         
   POMASS =   18.998; ZVAL   =    7.000    mass and valenz                                          
   RCORE  =    1.520    outmost cutoff radius                                                       
   RWIGS  =    1.500; RWIGS  =     .794    wigner-seitz radius (au A)                               
   ENMAX  =  400.000; ENMIN  =  300.000 eV                                                          
   ICORE  =        2    local potential                                                             
   LCOR   =        T    correct aug charges                                                         
   LPAW   =        T    paw PP                                                                      
   EAUG   =  613.614                                                                                
   DEXC   =     .000                                                                                
   RMAX   =    2.254    core radius for proj-oper                                                   
   RAUG   =    1.300    factor for augmentation sphere                                              
   RDEP   =    1.539    radius for radial grids                                                     
   QCUT   =   -5.545; QGAM   =   11.091    optimization parameters                                  
                                                                                                    
   Description                                                                                      
     l     E      TYP  RCUT    TYP  RCUT                                                            
     0   .000     23  1.200                                                                         
     0  -.700     23  1.200                                                                         
     1   .000     23  1.520                                                                         
     1   .100     23  1.520                                                                         
     2   .000      7  1.500                                                                         
  local pseudopotential read in
  atomic valenz-charges read in
  non local Contribution for L=            0  read in
    real space projection operators read in
  non local Contribution for L=            0  read in
    real space projection operators read in
  non local Contribution for L=            1  read in
    real space projection operators read in
  non local Contribution for L=            1  read in
    real space projection operators read in
    PAW grid and wavefunctions read in
 
   number of l-projection  operators is LMAX  =            4
   number of lm-projection operators is LMMAX =            8
 
 POTCAR:    PAW_PBE Li_sv 10Sep2004               
   VRHFIN =Li: 1s2s2p                                                                               
   LEXCH  = PE                                                                                      
   EATOM  =   202.7858 eV,   14.9043 Ry                                                             
                                                                                                    
   TITEL  = PAW_PBE Li_sv 10Sep2004                                                                 
   LULTRA =        F    use ultrasoft PP ?                                                          
   IUNSCR =        0    unscreen: 0-lin 1-nonlin 2-no                                               
   RPACOR =     .000    partial core radius                                                         
   POMASS =    7.010; ZVAL   =    3.000    mass and valenz                                          
   RCORE  =    1.700    outmost cutoff radius                                                       
   RWIGS  =    2.050; RWIGS  =    1.085    wigner-seitz radius (au A)                               
   ENMAX  =  499.034; ENMIN  =  374.276 eV                                                          
   ICORE  =        2    local potential                                                             
   LCOR   =        T    correct aug charges                                                         
   LPAW   =        T    paw PP                                                                      
   EAUG   =  628.945                                                                                
   RMAX   =    2.064    core radius for proj-oper                                                   
   RAUG   =    1.300    factor for augmentation sphere                                              
   RDEP   =    1.728    radius for radial grids                                                     
   QCUT   =   -6.056; QGAM   =   12.112    optimization parameters                                  
                                                                                                    
   Description                                                                                      
     l     E      TYP  RCUT    TYP  RCUT                                                            
     0   .000     23  1.400                                                                         
     0   .000     23  1.700                                                                         
     1   .000     23  1.400                                                                         
     2   .000     23  1.400                                                                         
  local pseudopotential read in
  atomic valenz-charges read in
  non local Contribution for L=            0  read in
    real space projection operators read in
  non local Contribution for L=            0  read in
    real space projection operators read in
  non local Contribution for L=            1  read in
    real space projection operators read in
    PAW grid and wavefunctions read in
 
   number of l-projection  operators is LMAX  =            3
   number of lm-projection operators is LMMAX =            5
 
 -----------------------------------------------------------------------------
|                                                                             |
|               ----> ADVICE to this user running VASP <----                  |
|                                                                             |
|     You have a (more or less) 'large supercell' and for larger cells it     |
|     might be more efficient to use real-space projection operators.         |
|     Therefore, try LREAL= Auto in the INCAR file.                           |
|     Mind: If you want to do very accurate calculations, keep the            |
|     reciprocal projection scheme (i.e. LREAL=.FALSE.).                      |
|                                                                             |
 -----------------------------------------------------------------------------

 PAW_PBE F 08Apr2002                    :
 energy of atom  1       EATOM= -659.4942
 kinetic energy error for atom=    0.1980 (will be added to EATOM!!)
  PAW_PBE Li_sv 10Sep2004               :
 energy of atom  2       EATOM= -202.7858
 kinetic energy error for atom=    0.0926 (will be added to EATOM!!)
 
 
 POSCAR: Li   F
  positions in direct lattice
  No initial velocities read in
 exchange correlation table for  LEXCH =        8
   RHO(1)=    0.500       N(1)  =     2000
   RHO(2)=  100.500       N(2)  =     4000

 VTST: version 4.1, (05/19/21)

 CHAIN: initializing optimizer
 
 OPT: Using LBFGS optimizer
 OPT: LBFGS, Init
 OPT: LBFGS, MEMORY             20
 OPT: LBFGS, IMAGES              7
 OPT: LBFGS, MAXMOVE      0.200000
 OPT: LBFGS, LGLOBAL      T
 OPT: LBFGS, INVCURV      0.010000
 OPT: LBFGS, LLINEOPT      F
 OPT: LBFGS, FDSTEP       0.005000
 OPT: LBFGS, LAUTOSCALE      T
 OPT: LBFGS, DAMPING      2.000000
 
 CHAIN: Read ICHAIN             0
 CHAIN: Running the NEB
 NEB:          SPRING     -5.000000
 NEB:          LCLIMB      F
 NEB:     LTANGENTOLD      F
 NEB:           LDNEB      F
 NEB:        LDNEBORG      F
 NEB:        LNEBCELL      F
 NEB:          EFIRST      0.000000
 NEB:           ELAST      0.000000
 
 POSCAR: Li   F
  positions in direct lattice
  No initial velocities read in
 
 POSCAR: Li   F
  positions in direct lattice
  No initial velocities read in
 
 POSCAR: Li   F
  positions in direct lattice
  No initial velocities read in
 
 POSCAR: Li   F
  positions in direct lattice
  No initial velocities read in
 


--------------------------------------------------------------------------------------------------------


 ion  position               nearest neighbor table
   1  1.000  1.000  1.000- 208 2.01 136 2.01 109 2.01 115 2.01 138 2.01 190 2.02
   2  0.000  1.000  0.333- 116 2.00 136 2.01 110 2.01 137 2.01 209 2.01 191 2.02
   3  0.000  1.000  0.667- 138 2.01 192 2.01 210 2.02 137 2.02 111 2.02 117 2.02
   4  0.000  0.333  1.000- 141 2.00 109 2.01 139 2.01 112 2.01 211 2.01 193 2.02
   5  0.999  0.334  0.334- 212 1.99 140 2.00 113 2.00 139 2.03 110 2.03 194 2.03
   6  0.003  0.332  0.666- 114 1.89 111 2.00 140 2.01 141 2.03 213 2.04 195 2.06
   7  0.000  0.667  1.000- 115 2.01 196 2.01 214 2.02 112 2.02 142 2.02 144 2.02
   8  0.003  0.666  0.332- 143 1.89 142 2.00 113 2.01 116 2.03 215 2.04 197 2.06
   9  0.006  0.664  0.664- 167 1.63 198 2.00 144 2.04 117 2.04 114 2.16 143 2.16
  10  0.333  1.000  1.000- 199 2.01 124 2.01 147 2.01 145 2.01 118 2.01 190 2.01
  11  0.333  0.000  0.333- 200 2.00 145 2.01 191 2.01 146 2.01 125 2.02 119 2.02
  12  0.333  0.001  0.667- 201 1.98 120 2.00 192 2.01 147 2.01 126 2.02 146 2.03
  13  0.333  0.333  0.000- 202 2.00 118 2.01 193 2.01 121 2.01 150 2.02 148 2.02
  14  0.333  0.333  0.333- 203 2.00 119 2.00 148 2.00 194 2.01 149 2.01 122 2.01
  15  0.335  0.331  0.667- 195 1.96 204 1.98 120 1.99 150 2.01 149 2.03 123 2.03
  16  0.333  0.667  0.001- 205 1.98 151 2.00 196 2.01 124 2.01 153 2.02 121 2.03
  17  0.335  0.667  0.331- 197 1.96 206 1.98 151 1.99 125 2.01 122 2.03 152 2.03
  18  0.334  0.668  0.668- 207 1.96 198 1.97 126 2.01 153 2.01 123 2.04 152 2.04
  19  0.667  0.999  0.999- 156 2.00 133 2.00 208 2.02 199 2.02 127 2.02 154 2.02
  20  0.666  1.000  0.333- 155 2.00 154 2.00 128 2.00 134 2.01 200 2.02 209 2.02
  21  0.664  0.002  0.667- 135 1.91 129 1.99 156 2.01 201 2.03 210 2.04 155 2.04
  22  0.666  0.333  1.000- 130 2.00 127 2.00 157 2.00 159 2.01 202 2.02 211 2.02
  23  0.667  0.333  0.333- 212 2.01 157 2.01 128 2.01 158 2.02 131 2.02 203 2.04
  24  0.666  0.332  0.666- 129 2.00 158 2.01 204 2.02 132 2.02 159 2.02 213 2.03
  25  0.664  0.667  0.002- 162 1.91 160 1.99 133 2.01 205 2.03 214 2.04 130 2.04
  26  0.666  0.666  0.332- 160 2.00 131 2.01 206 2.02 134 2.02 161 2.02 215 2.03
  27  0.659  0.669  0.669- 216 1.77 207 1.95 161 2.05 132 2.05 135 2.12 162 2.12
  28  1.000  0.166  0.166- 181 2.01 136 2.01 109 2.01 139 2.02 110 2.02 163 2.02
  29  0.999  0.165  0.500- 182 2.00 137 2.00 110 2.01 111 2.01 164 2.03 140 2.04
  30  0.000  0.166  0.834- 138 1.99 141 2.00 109 2.01 183 2.01 165 2.02 111 2.02
  31  0.999  0.500  0.165- 184 2.00 112 2.00 139 2.01 142 2.01 166 2.03 113 2.04
  32  0.976  0.505  0.505- 167 1.53 185 1.94 143 2.09 114 2.09 113 2.10 140 2.10
  33  0.001  0.499  0.831- 114 1.98 144 2.01 141 2.02 186 2.03 112 2.03 168 2.06
  34  0.000  0.834  0.166- 115 1.99 116 2.00 136 2.01 187 2.01 169 2.02 142 2.02
  35  0.001  0.831  0.499- 143 1.98 117 2.01 116 2.02 188 2.03 137 2.03 170 2.06
  36  0.998  0.833  0.833- 189 1.96 117 2.03 144 2.03 138 2.03 115 2.03 171 2.04
  37  0.333  0.166  0.166- 172 2.00 118 2.01 145 2.01 163 2.01 148 2.02 119 2.02
  38  0.334  0.165  0.500- 173 1.98 146 1.98 119 2.01 120 2.01 164 2.02 149 2.07
  39  0.334  0.166  0.834- 174 2.00 147 2.00 165 2.01 118 2.01 150 2.02 120 2.03
  40  0.334  0.500  0.165- 175 1.98 121 1.98 148 2.01 151 2.01 166 2.02 122 2.07
  41  0.348  0.499  0.499- 176 1.86 149 1.98 122 1.98 123 1.98 152 1.98
  42  0.336  0.499  0.837- 177 1.96 121 1.98 168 1.98 150 2.01 153 2.02 123 2.11
  43  0.334  0.834  0.166- 178 2.00 124 2.00 169 2.01 145 2.01 125 2.02 151 2.03
  44  0.336  0.837  0.499- 179 1.96 146 1.98 170 1.98 125 2.01 126 2.02 152 2.11
  45  0.333  0.834  0.834- 180 1.99 147 2.01 124 2.01 171 2.01 153 2.03 126 2.03
  46  0.667  0.166  0.166- 128 2.01 157 2.01 154 2.01 127 2.01 181 2.02 172 2.02
  47  0.666  0.165  0.499- 158 1.96 155 1.98 128 2.01 173 2.02 129 2.03 182 2.03
  48  0.666  0.167  0.834- 156 1.99 127 2.01 174 2.01 159 2.02 129 2.02 183 2.02
  49  0.666  0.499  0.165- 131 1.96 130 1.98 157 2.01 175 2.02 160 2.03 184 2.03
  50  0.667  0.497  0.497- 185 1.88 176 1.98 131 2.05 158 2.05 161 2.05 132 2.05
  51  0.665  0.502  0.835- 162 1.96 130 2.01 177 2.02 159 2.03 132 2.04 186 2.04
  52  0.666  0.834  0.167- 133 1.99 154 2.01 178 2.01 134 2.02 160 2.02 187 2.02
  53  0.665  0.835  0.502- 135 1.96 155 2.01 179 2.02 134 2.03 161 2.04 188 2.04
  54  0.671  0.830  0.830- 189 2.02 135 2.02 162 2.02 133 2.08 156 2.08 180 2.09
  55  0.167  0.000  0.166- 190 2.00 136 2.00 191 2.01 169 2.01 145 2.01 163 2.02
  56  0.167  0.000  0.499- 170 1.95 164 1.97 137 2.01 146 2.02 191 2.02 192 2.02
  57  0.166  1.000  0.834- 138 1.99 190 2.01 147 2.01 165 2.01 171 2.01 192 2.02
  58  0.166  0.332  0.165- 163 1.99 139 1.99 193 1.99 148 2.01 166 2.02 194 2.07
  59  0.165  0.319  0.501- 164 1.88 140 1.96 195 1.98 194 2.00 149 2.00
  60  0.167  0.331  0.835- 165 1.99 193 2.00 141 2.01 150 2.01 168 2.03 195 2.06
  61  0.168  0.668  0.164- 196 1.98 197 1.99 169 2.00 151 2.00 142 2.01 166 2.04
  62  0.175  0.683  0.498- 143 1.81 170 1.88 152 1.92 198 2.03 197 2.05
  63  0.167  0.668  0.835- 196 2.00 171 2.00 144 2.00 153 2.01 168 2.04 198 2.06
  64  0.500  0.000  0.166- 199 2.00 154 2.01 178 2.01 172 2.01 200 2.01 145 2.02
  65  0.500  0.001  0.500- 173 2.01 155 2.01 146 2.01 201 2.01 200 2.02 179 2.02
  66  0.501  1.000  0.834- 156 2.00 180 2.00 199 2.01 201 2.02 174 2.02 147 2.03
  67  0.500  0.333  0.166- 157 2.00 172 2.00 202 2.01 203 2.01 175 2.01 148 2.02
  68  0.501  0.331  0.499- 158 1.95 173 1.98 203 2.01 204 2.02 176 2.03 149 2.07
  69  0.500  0.333  0.834- 174 2.00 177 2.00 159 2.01 202 2.01 150 2.01 204 2.03
  70  0.499  0.667  0.166- 205 1.97 151 2.01 206 2.01 160 2.01 178 2.01 175 2.03
  71  0.501  0.668  0.499- 161 1.97 179 2.00 206 2.01 207 2.02 152 2.04 176 2.04
  72  0.497  0.668  0.836- 162 1.90 153 1.99 180 2.01 205 2.02 177 2.04 207 2.05
  73  0.833  0.000  0.167- 208 1.98 181 2.00 209 2.01 187 2.02 154 2.02 136 2.02
  74  0.833  1.000  0.500- 182 2.00 188 2.00 209 2.01 137 2.02 210 2.02 155 2.02
  75  0.833  0.002  0.836- 189 1.91 183 1.99 156 2.02 208 2.02 138 2.04 210 2.04
  76  0.833  0.331  0.165- 212 1.95 211 2.00 181 2.00 157 2.02 139 2.03 184 2.03
  77  0.831  0.327  0.497- 185 1.84 182 1.95 158 2.04 213 2.04 212 2.06 140 2.08
  78  0.834  0.333  0.834- 183 2.00 211 2.01 186 2.02 159 2.02 141 2.02 213 2.02
  79  0.833  0.667  0.167- 214 1.99 187 2.01 215 2.01 160 2.02 184 2.02 142 2.02
  80  0.823  0.673  0.497- 161 1.93 167 1.95 188 1.95 215 1.98
  81  0.833  0.668  0.840- 216 1.77 214 1.95 144 2.03 186 2.04 189 2.13 162 2.16
  82  0.167  0.166  0.000- 190 2.00 109 2.00 193 2.01 165 2.01 118 2.01 163 2.02
  83  0.166  0.165  0.332- 163 1.99 110 1.99 191 1.99 119 2.01 164 2.02 194 2.07
  84  0.168  0.164  0.668- 192 1.98 195 1.99 165 2.00 120 2.00 111 2.01 164 2.04
  85  0.167  0.499  0.000- 168 1.95 166 1.97 112 2.01 121 2.02 193 2.02 196 2.02
  86  0.165  0.501  0.319- 166 1.88 113 1.96 197 1.98 194 2.00 122 2.00
  87  0.175  0.498  0.683- 114 1.81 168 1.88 123 1.92 198 2.03 195 2.05
  88  0.166  0.834  1.000- 115 1.99 190 2.01 124 2.01 169 2.01 171 2.01 196 2.02
  89  0.167  0.835  0.331- 169 1.99 191 2.00 116 2.01 125 2.01 170 2.03 197 2.06
  90  0.167  0.835  0.668- 192 2.00 171 2.00 117 2.00 126 2.01 170 2.04 198 2.06
  91  0.500  0.166  0.000- 199 2.00 127 2.01 174 2.01 172 2.01 202 2.01 118 2.02
  92  0.500  0.166  0.333- 128 2.00 172 2.00 200 2.01 203 2.01 173 2.01 119 2.02
  93  0.499  0.166  0.667- 201 1.97 120 2.01 204 2.01 129 2.01 174 2.01 173 2.03
  94  0.500  0.500  0.001- 175 2.01 130 2.01 121 2.01 205 2.01 202 2.02 177 2.02
  95  0.501  0.499  0.331- 131 1.95 175 1.98 203 2.01 206 2.02 176 2.03 122 2.07
  96  0.501  0.499  0.668- 132 1.97 177 2.00 204 2.01 207 2.02 123 2.04 176 2.04
  97  0.501  0.834  1.000- 133 2.00 180 2.00 199 2.01 205 2.02 178 2.02 124 2.03
  98  0.500  0.834  0.333- 178 2.00 179 2.00 134 2.01 200 2.01 125 2.01 206 2.03
  99  0.497  0.836  0.668- 135 1.90 126 1.99 180 2.01 201 2.02 179 2.04 207 2.05
 100  0.833  0.167  0.000- 208 1.98 181 2.00 211 2.01 183 2.02 127 2.02 109 2.02
 101  0.833  0.165  0.331- 212 1.95 209 2.00 181 2.00 128 2.02 110 2.03 182 2.03
 102  0.833  0.167  0.667- 210 1.99 183 2.01 213 2.01 129 2.02 182 2.02 111 2.02
 103  0.833  0.500  1.000- 184 2.00 186 2.00 211 2.01 112 2.02 214 2.02 130 2.02
 104  0.831  0.497  0.327- 185 1.84 184 1.95 131 2.04 215 2.04 212 2.06 113 2.08
 105  0.823  0.497  0.673- 132 1.93 167 1.95 186 1.95 213 1.98
 106  0.833  0.836  0.002- 189 1.91 187 1.99 133 2.02 208 2.02 115 2.04 214 2.04
 107  0.834  0.834  0.333- 187 2.00 209 2.01 188 2.02 134 2.02 116 2.02 215 2.02
 108  0.833  0.840  0.668- 216 1.77 210 1.95 117 2.03 188 2.04 189 2.13 135 2.16
 109  0.001  0.167  0.000-  82 2.00  28 2.01   4 2.01  30 2.01   1 2.01 100 2.02
 110  0.001  0.166  0.333-  83 1.99  29 2.01   2 2.01  28 2.02   5 2.03 101 2.03
 111  0.001  0.167  0.666-   6 2.00  29 2.01  84 2.01   3 2.02 102 2.02  30 2.02
 112  0.000  0.500  0.999-  31 2.00  85 2.01   4 2.01   7 2.02 103 2.02  33 2.03
 113  0.003  0.499  0.334-  86 1.96   5 2.00   8 2.01  31 2.04 104 2.08  32 2.10
 114  0.026  0.486  0.669-  87 1.81   6 1.89  33 1.98 167 1.99  32 2.09   9 2.16 195 2.59
 115  0.002  0.833  0.001-  34 1.99  88 1.99   7 2.01   1 2.01  36 2.03 106 2.04
 116  0.001  0.834  0.332-  34 2.00   2 2.00  89 2.01  35 2.02 107 2.02   8 2.03
 117  0.001  0.832  0.665-  90 2.00  35 2.01   3 2.02  36 2.03 108 2.03   9 2.04
 118  0.333  0.167  0.000-  13 2.01  37 2.01  39 2.01  10 2.01  82 2.01  91 2.02
 119  0.332  0.167  0.333-  14 2.00  83 2.01  38 2.01  37 2.02  11 2.02  92 2.02
 120  0.333  0.166  0.666-  15 1.99  12 2.00  84 2.00  93 2.01  38 2.01  39 2.03
 121  0.334  0.499  0.001-  42 1.98  40 1.98  94 2.01  13 2.01  85 2.02  16 2.03
 122  0.330  0.499  0.337-  41 1.98  86 2.00  14 2.01  17 2.03  95 2.07  40 2.07
 123  0.332  0.499  0.663-  87 1.92  41 1.98  15 2.03  18 2.04  96 2.04  42 2.11
 124  0.333  0.834  0.000-  43 2.00  45 2.01  88 2.01  10 2.01  16 2.01  97 2.03
 125  0.334  0.833  0.333-  44 2.01  17 2.01  89 2.01  98 2.01  11 2.02  43 2.02
 126  0.333  0.834  0.666-  99 1.99  18 2.01  90 2.01  44 2.02  12 2.02  45 2.03
 127  0.666  0.167  1.000-  22 2.00  91 2.01  48 2.01  46 2.01 100 2.02  19 2.02
 128  0.666  0.166  0.332-  92 2.00  20 2.00  46 2.01  47 2.01  23 2.01 101 2.02
 129  0.666  0.167  0.667-  21 1.99  24 2.00  93 2.01  48 2.02 102 2.02  47 2.03
 130  0.666  0.498  0.002-  49 1.98  22 2.00  94 2.01  51 2.01 103 2.02  25 2.04
 131  0.662  0.500  0.328-  95 1.95  49 1.96  26 2.01  23 2.02 104 2.04  50 2.05
 132  0.664  0.499  0.667- 105 1.93  96 1.97  24 2.02  51 2.04  27 2.05  50 2.05
 133  0.666  0.834  0.002-  52 1.99  97 2.00  19 2.00  25 2.01 106 2.02  54 2.08
 134  0.666  0.833  0.334-  98 2.01  20 2.01  52 2.02  26 2.02 107 2.02  53 2.03
 135  0.655  0.844  0.664-  99 1.90  21 1.91  53 1.96  54 2.02  27 2.12 108 2.16 216 2.48
 136  0.001  0.000  0.167-  55 2.00  28 2.01   2 2.01  34 2.01   1 2.01  73 2.02
 137  0.000  0.999  0.500-  29 2.00  56 2.01   2 2.01   3 2.02  74 2.02  35 2.03
 138  0.002  0.001  0.833-  30 1.99  57 1.99   3 2.01   1 2.01  36 2.03  75 2.04
 139  0.001  0.333  0.166-  58 1.99  31 2.01   4 2.01  28 2.02   5 2.03  76 2.03
 140  0.003  0.334  0.499-  59 1.96   5 2.00   6 2.01  29 2.04  77 2.08  32 2.10
 141  0.001  0.332  0.834-  30 2.00   4 2.00  60 2.01  33 2.02  78 2.02   6 2.03
 142  0.001  0.666  0.167-   8 2.00  31 2.01  61 2.01   7 2.02  79 2.02  34 2.02
 143  0.026  0.669  0.486-  62 1.81   8 1.89  35 1.98 167 1.99  32 2.09   9 2.16 197 2.59
 144  0.001  0.665  0.832-  63 2.00  33 2.01   7 2.02  36 2.03  81 2.03   9 2.04
 145  0.333  0.000  0.167-  11 2.01  37 2.01  43 2.01  10 2.01  55 2.01  64 2.02
 146  0.334  0.001  0.499-  44 1.98  38 1.98  65 2.01  11 2.01  56 2.02  12 2.03
 147  0.333  0.000  0.834-  39 2.00  45 2.01  57 2.01  10 2.01  12 2.01  66 2.03
 148  0.332  0.333  0.167-  14 2.00  58 2.01  40 2.01  37 2.02  13 2.02  67 2.02
 149  0.330  0.337  0.499-  41 1.98  59 2.00  14 2.01  15 2.03  68 2.07  38 2.07
 150  0.334  0.333  0.833-  42 2.01  15 2.01  60 2.01  69 2.01  13 2.02  39 2.02
 151  0.333  0.666  0.166-  17 1.99  16 2.00  61 2.00  70 2.01  40 2.01  43 2.03
 152  0.332  0.663  0.499-  62 1.92  41 1.98  17 2.03  18 2.04  71 2.04  44 2.11
 153  0.333  0.666  0.834-  72 1.99  18 2.01  63 2.01  42 2.02  16 2.02  45 2.03
 154  0.666  1.000  0.167-  20 2.00  64 2.01  52 2.01  46 2.01  73 2.02  19 2.02
 155  0.666  0.002  0.498-  47 1.98  20 2.00  65 2.01  53 2.01  74 2.02  21 2.04
 156  0.666  0.002  0.834-  48 1.99  66 2.00  19 2.00  21 2.01  75 2.02  54 2.08
 157  0.666  0.332  0.166-  67 2.00  22 2.00  46 2.01  23 2.01  49 2.01  76 2.02
 158  0.662  0.328  0.500-  68 1.95  47 1.96  24 2.01  23 2.02  77 2.04  50 2.05
 159  0.666  0.334  0.833-  69 2.01  22 2.01  48 2.02  24 2.02  78 2.02  51 2.03
 160  0.666  0.667  0.167-  25 1.99  26 2.00  70 2.01  52 2.02  79 2.02  49 2.03
 161  0.664  0.667  0.499-  80 1.93  71 1.97  26 2.02  53 2.04  27 2.05  50 2.05
 162  0.655  0.664  0.844-  72 1.90  25 1.91  51 1.96  54 2.02  27 2.12  81 2.16 216 2.48
 163  0.167  0.167  0.167-  58 1.99  83 1.99  37 2.01  82 2.02  55 2.02  28 2.02
 164  0.167  0.163  0.499-  59 1.88  56 1.97  38 2.02  83 2.02  29 2.03  84 2.04
 165  0.167  0.166  0.834-  60 1.99  84 2.00  39 2.01  57 2.01  82 2.01  30 2.02
 166  0.167  0.499  0.163-  86 1.88  85 1.97  40 2.02  58 2.02  31 2.03  61 2.04
 167  0.925  0.587  0.587-  32 1.53   9 1.63 105 1.95  80 1.95 143 1.99 114 1.99 185 2.27 216 2.49

 168  0.171  0.499  0.839-  87 1.88  85 1.95  42 1.98  60 2.03  63 2.04  33 2.06
 169  0.167  0.834  0.166-  89 1.99  61 2.00  43 2.01  88 2.01  55 2.01  34 2.02
 170  0.171  0.839  0.499-  62 1.88  56 1.95  44 1.98  89 2.03  90 2.04  35 2.06
 171  0.167  0.833  0.833-  90 2.00  63 2.00  45 2.01  57 2.01  88 2.01  36 2.04
 172  0.499  0.167  0.167-  37 2.00  92 2.00  67 2.00  64 2.01  91 2.01  46 2.02
 173  0.498  0.167  0.499-  38 1.98  68 1.98  65 2.01  92 2.01  47 2.02  93 2.03
 174  0.500  0.167  0.834-  69 2.00  39 2.00  91 2.01  93 2.01  48 2.01  66 2.02
 175  0.498  0.499  0.167-  40 1.98  95 1.98  94 2.01  67 2.01  49 2.02  70 2.03
 176  0.503  0.499  0.499-  41 1.86  50 1.98  68 2.03  95 2.03  96 2.04  71 2.04
 177  0.498  0.498  0.833-  42 1.96  96 2.00  69 2.00  51 2.02  94 2.02  72 2.04
 178  0.500  0.834  0.167-  98 2.00  43 2.00  64 2.01  70 2.01  52 2.01  97 2.02
 179  0.498  0.833  0.498-  44 1.96  71 2.00  98 2.00  53 2.02  65 2.02  99 2.04
 180  0.498  0.834  0.834-  45 1.99  66 2.00  97 2.00  72 2.01  99 2.01  54 2.09
 181  0.834  0.166  0.166-  73 2.00 100 2.00 101 2.00  76 2.00  28 2.01  46 2.02
 182  0.834  0.165  0.499-  77 1.95  29 2.00  74 2.00 102 2.02  47 2.03 101 2.03
 183  0.833  0.167  0.833-  75 1.99  78 2.00 102 2.01  30 2.01 100 2.02  48 2.02
 184  0.834  0.499  0.165- 104 1.95  31 2.00 103 2.00  79 2.02  49 2.03  76 2.03
 185  0.820  0.477  0.477-  77 1.84 104 1.84  50 1.88  32 1.94 167 2.27 212 2.58
 186  0.833  0.500  0.834- 105 1.95 103 2.00  78 2.02  33 2.03  51 2.04  81 2.04
 187  0.833  0.833  0.167- 106 1.99 107 2.00  79 2.01  34 2.01  73 2.02  52 2.02
 188  0.833  0.834  0.500-  80 1.95  74 2.00 107 2.02  35 2.03  53 2.04 108 2.04
 189  0.836  0.845  0.845-  75 1.91 106 1.91  36 1.96  54 2.02 108 2.13  81 2.13 216 2.48
 190  0.167  0.000  0.000-  82 2.00  55 2.00  88 2.01  57 2.01  10 2.01   1 2.02
 191  0.167  0.000  0.332-  83 1.99  89 2.00  55 2.01  11 2.01   2 2.02  56 2.02
 192  0.167  0.000  0.667-  84 1.98  90 2.00  12 2.01   3 2.01  57 2.02  56 2.02
 193  0.167  0.332  0.000-  58 1.99  60 2.00  82 2.01  13 2.01   4 2.02  85 2.02
 194  0.167  0.337  0.337-  86 2.00  59 2.00  14 2.01   5 2.03  83 2.07  58 2.07
 195  0.173  0.329  0.665-  15 1.96  59 1.98  84 1.99  87 2.05  60 2.06   6 2.06 114 2.59
 196  0.167  0.667  0.000-  61 1.98  63 2.00  16 2.01   7 2.01  88 2.02  85 2.02
 197  0.173  0.665  0.329-  17 1.96  86 1.98  61 1.99  62 2.05  89 2.06   8 2.06 143 2.59
 198  0.171  0.665  0.665-  18 1.97   9 2.00  87 2.03  62 2.03  90 2.06  63 2.06
 199  0.500  0.000  0.000-  91 2.00  64 2.00  10 2.01  66 2.01  97 2.01  19 2.02
 200  0.499  0.000  0.333-  11 2.00  92 2.01  98 2.01  64 2.01  20 2.02  65 2.02
 201  0.497  0.003  0.666-  93 1.97  12 1.98  65 2.01  99 2.02  66 2.02  21 2.03
 202  0.499  0.333  0.000-  13 2.00  67 2.01  69 2.01  91 2.01  22 2.02  94 2.02
 203  0.498  0.333  0.333-  14 2.00  68 2.01  95 2.01  67 2.01  92 2.01  23 2.04
 204  0.499  0.333  0.666-  15 1.98  96 2.01  93 2.01  68 2.02  24 2.02  69 2.03
 205  0.497  0.666  0.003-  70 1.97  16 1.98  94 2.01  72 2.02  97 2.02  25 2.03
 206  0.499  0.666  0.333-  17 1.98  71 2.01  70 2.01  95 2.02  26 2.02  98 2.03
 207  0.497  0.666  0.666-  27 1.95  18 1.96  96 2.02  71 2.02  72 2.05  99 2.05
 208  0.834  0.003  0.003- 100 1.98  73 1.98   1 2.01  19 2.02  75 2.02 106 2.02
 209  0.833  1.000  0.333- 101 2.00 107 2.01  73 2.01  74 2.01   2 2.01  20 2.02
 210  0.833  0.002  0.667- 108 1.95 102 1.99   3 2.02  74 2.02  21 2.04  75 2.04
 211  0.833  0.333  1.000-  76 2.00  78 2.01 100 2.01 103 2.01   4 2.01  22 2.02
 212  0.834  0.326  0.326-  76 1.95 101 1.95   5 1.99  23 2.01  77 2.06 104 2.06 185 2.58
 213  0.834  0.333  0.666- 105 1.98 102 2.01  78 2.02  24 2.03   6 2.04  77 2.04
 214  0.833  0.667  0.002-  81 1.95  79 1.99   7 2.02 103 2.02  25 2.04 106 2.04
 215  0.834  0.666  0.333-  80 1.98  79 2.01 107 2.02  26 2.03   8 2.04 104 2.04
 216  0.798  0.702  0.702-  81 1.77 108 1.77  27 1.77 189 2.48 135 2.48 162 2.48 167 2.49
 
  LATTYP: Found a simple cubic cell.
 ALAT       =    12.0789003372
  
  Lattice vectors:
  
 A1 = (  12.0789003372,   0.0000000000,   0.0000000000)
 A2 = (   0.0000000000,  12.0789003372,   0.0000000000)
 A3 = (   0.0000000000,   0.0000000000,  12.0789003372)


Analysis of symmetry for initial positions (statically):
=====================================================================
 Subroutine PRICEL returns:
 Original cell was already a primitive cell.
 

 Routine SETGRP: Setting up the symmetry group for a 
 simple cubic supercell.


 Subroutine GETGRP returns: Found  1 space group operations
 (whereof  1 operations were pure point group operations)
 out of a pool of 48 trial point group operations.


The static configuration has the point symmetry C_1 .


Analysis of symmetry for dynamics (positions and initial velocities):
=====================================================================
 Subroutine PRICEL returns:
 Original cell was already a primitive cell.
 

 Routine SETGRP: Setting up the symmetry group for a 
 simple cubic supercell.


 Subroutine GETGRP returns: Found  1 space group operations
 (whereof  1 operations were pure point group operations)
 out of a pool of 48 trial point group operations.


The dynamic configuration has the point symmetry C_1 .


Analysis of structural, dynamic, and magnetic symmetry:
=====================================================================
 Subroutine PRICEL returns:
 Original cell was already a primitive cell.
 

 Routine SETGRP: Setting up the symmetry group for a 
 simple cubic supercell.


 Subroutine GETGRP returns: Found  1 space group operations
 (whereof  1 operations were pure point group operations)
 out of a pool of 48 trial point group operations.


The overall configuration has the point symmetry C_1 .


 Subroutine INISYM returns: Found  1 space group operations
 (whereof  1 operations are pure point group operations),
 and found     1 'primitive' translations


----------------------------------------------------------------------------------------

                                     Primitive cell                                     

  volume of cell :    1762.3095

  direct lattice vectors                    reciprocal lattice vectors
    12.078900337  0.000000000  0.000000000     0.082788993  0.000000000  0.000000000
     0.000000000 12.078900337  0.000000000     0.000000000  0.082788993  0.000000000
     0.000000000  0.000000000 12.078900337     0.000000000  0.000000000  0.082788993

  length of vectors
    12.078900337 12.078900337 12.078900337     0.082788993  0.082788993  0.082788993

  position of ions in fractional coordinates (direct lattice)
     0.999651549  0.999912578  0.999916487
     0.000192127  0.999504568  0.332973590
     0.000210258  0.999584364  0.666565188
     0.000192075  0.332969604  0.999507685
     0.998619203  0.334019108  0.334022782
     0.002662324  0.331833464  0.666078970
     0.000210012  0.666561621  0.999588392
     0.002662238  0.666075538  0.331836528
     0.005530815  0.663831445  0.663835559
     0.333490300  0.999928148  0.999932255
     0.333465193  0.000270814  0.332567842
     0.332977762  0.000661731  0.666920636
     0.333465170  0.332563829  0.000271809
     0.332753359  0.332922131  0.332925462
     0.334697804  0.330996696  0.667047578
     0.332977748  0.666916952  0.000665858
     0.334698045  0.667043837  0.331001026
     0.334374452  0.667511704  0.667515604
     0.666773914  0.999478119  0.999481791
     0.666335132  0.999866816  0.332855686
     0.664493803  0.002394898  0.667342881
     0.666334941  0.332851636  0.999894590
     0.667388700  0.332572472  0.332577825
     0.665658326  0.332248915  0.665922976
     0.664493707  0.667338762  0.002398869
     0.665658404  0.665917863  0.332252680
     0.658604153  0.668920033  0.668923717
     0.999638559  0.166411009  0.166414576
     0.998855016  0.164681510  0.499538320
     0.000248428  0.166334140  0.833570083
     0.998854519  0.499534770  0.164684699
     0.975793361  0.504936626  0.504939593
     0.001089552  0.498837520  0.830756381
     0.000248295  0.833566873  0.166337837
     0.001089148  0.830752357  0.498841427
     0.997917309  0.833406564  0.833410279
     0.333467373  0.166360500  0.166362869
     0.334140800  0.165011437  0.499655702
     0.333812521  0.165973839  0.833789137
     0.334140948  0.499651970  0.165014295
     0.348400528  0.499219885  0.499223624
     0.335534038  0.499132187  0.837146760
     0.333812722  0.833786240  0.165978467
     0.335534815  0.837143350  0.499135827
     0.333131997  0.833987040  0.833990894
     0.666567512  0.166159614  0.166176242
     0.665606183  0.165413097  0.499142629
     0.666270493  0.166783804  0.833808361
     0.665606103  0.499147574  0.165422290
     0.666877443  0.497278663  0.497280970
     0.664635550  0.501922414  0.835472554
     0.666270506  0.833799412  0.166780091
     0.664635808  0.835463689  0.501933719
     0.670575076  0.829794893  0.829798647
     0.166566082  0.000077714  0.166004851
     0.166746270  0.000165914  0.499414508
     0.166429159  0.999798470  0.833939991
     0.166277069  0.331881624  0.165246999
     0.165223728  0.319143193  0.501093345
     0.167162289  0.330984313  0.834566435
     0.167500317  0.668223516  0.164392379
     0.175172120  0.683150280  0.497961371
     0.166647406  0.667677210  0.834712739
     0.500082445  0.000028221  0.166232152
     0.499939154  0.000641519  0.499864039
     0.500509685  0.999503742  0.833530995
     0.499915648  0.332587135  0.166414523
     0.500828182  0.330930757  0.499181058
     0.500102596  0.332661992  0.833872566
     0.499497036  0.666966854  0.166498847
     0.501059565  0.668047053  0.499320472
     0.497265198  0.667507523  0.836185010
     0.833351205  0.000284995  0.166682454
     0.833061509  0.999553187  0.499659979
     0.833042769  0.002485982  0.835624478
     0.833222529  0.331301748  0.164983460
     0.831344724  0.326984530  0.497087646
     0.833649507  0.332872368  0.833605113
     0.833364513  0.666968432  0.166843993
     0.823167258  0.672616173  0.496611765
     0.832997904  0.668489425  0.840295383
     0.166566005  0.166000768  0.000081357
     0.166276259  0.165244621  0.331885153
     0.167500407  0.164388683  0.668227073
     0.166746291  0.499410539  0.000169384
     0.165223416  0.501089853  0.319146838
     0.175171890  0.497957534  0.683154040
     0.166429141  0.833936293  0.999802620
     0.167163122  0.834563722  0.330988800
     0.166647332  0.834708585  0.667681567
     0.500082742  0.166228311  0.000031236
     0.499924578  0.166406190  0.332590543
     0.499497102  0.166494647  0.666970637
     0.499939212  0.499860258  0.000644837
     0.500828436  0.499178118  0.330934324
     0.501058777  0.499317027  0.668050325
     0.500509425  0.833527228  0.999508191
     0.500094098  0.833864242  0.332665893
     0.497265163  0.836181224  0.667510885
     0.833350904  0.166678880  0.000287966
     0.833214825  0.164974457  0.331305334
     0.833364571  0.166840459  0.666971960
     0.833061356  0.499655986  0.999556575
     0.831344394  0.497085524  0.326987367
     0.823167613  0.496609367  0.672618987
     0.833043029  0.835621022  0.002489723
     0.833657044  0.833596421  0.332875877
     0.832998320  0.840291498  0.668493182
     0.000584760  0.166698781  0.000200714
     0.001230231  0.166172875  0.333369281
     0.000947420  0.166567023  0.665931849
     0.000095743  0.499675768  0.999217070
     0.003411151  0.499476071  0.333675766
     0.026315164  0.486229203  0.669366313
     0.001517096  0.833136329  0.001444226
     0.001031745  0.834235635  0.331555328
     0.001168189  0.832347025  0.665475360
     0.333194377  0.166549316  0.000315880
     0.332350733  0.167397010  0.333394081
     0.333430130  0.166291238  0.666097757
     0.333900382  0.499235015  0.001010012
     0.329835547  0.499366909  0.336688549
     0.332406374  0.499083974  0.662609799
     0.332716485  0.833587952  0.000126954
     0.333543684  0.833393639  0.332866144
     0.332772385  0.833542851  0.666099653
     0.666214916  0.166979066  0.999963159
     0.665776484  0.165782493  0.332356614
     0.666095432  0.166990128  0.666797088
     0.665961646  0.498487869  0.001555800
     0.662363066  0.499611807  0.327856440
     0.663913461  0.499440679  0.666969529
     0.665885571  0.834038291  0.001711438
     0.666309445  0.833111986  0.333644981
     0.654690251  0.844469491  0.663740791
     0.000584705  0.000197593  0.166702613
     0.000095808  0.999213832  0.499679686
     0.001517139  0.001440298  0.833139884
     0.001232105  0.333365491  0.166176709
     0.003411033  0.333672691  0.499479535
     0.001029390  0.331551554  0.834239531
     0.000947602  0.665928325  0.166570550
     0.026315818  0.669362504  0.486232478
     0.001168304  0.665471561  0.832350932
     0.333194416  0.000313349  0.166553172
     0.333900399  0.001007106  0.499239098
     0.332716524  0.000122697  0.833591744
     0.332348871  0.333390650  0.167399856
     0.329836053  0.336684934  0.499370234
     0.333545675  0.332861997  0.833396688
     0.333429845  0.666094021  0.166295234
     0.332406312  0.662606393  0.499087832
     0.332772231  0.666095817  0.833546816
     0.666214960  0.999951904  0.166983133
     0.665961804  0.001546627  0.498491818
     0.665885621  0.001709561  0.834042475
     0.665776270  0.332351612  0.165797772
     0.662363217  0.327851752  0.499615810
     0.666309571  0.333641382  0.833124516
     0.666095365  0.666794443  0.166992840
     0.663913594  0.666964932  0.499445604
     0.654690021  0.663735081  0.844473882
     0.166831095  0.167108685  0.167111993
     0.167031329  0.163379326  0.499269447
     0.167372405  0.166253208  0.833566122
     0.167031161  0.499265682  0.163382732
     0.925289040  0.587142312  0.587144998
     0.171243574  0.499272447  0.838790022
     0.167372518  0.833562757  0.166257573
     0.171243599  0.838786343  0.499276458
     0.166578212  0.833065141  0.833069176
     0.499294264  0.166620821  0.166624844
     0.498050084  0.166626405  0.499317575
     0.499515050  0.167058766  0.833585245
     0.498049385  0.499313923  0.166630050
     0.502669986  0.499064975  0.499069088
     0.497563092  0.498371451  0.833484263
     0.499514546  0.833581668  0.167062213
     0.497562727  0.833480591  0.498375859
     0.497764029  0.833977433  0.833981375
     0.833556202  0.165537701  0.165541871
     0.833623957  0.165379149  0.499394903
     0.833464399  0.167395786  0.833416231
     0.833624359  0.499391092  0.165382654
     0.819776166  0.477382624  0.477386183
     0.833429024  0.499746010  0.833644470
     0.833464926  0.833412758  0.167398727
     0.833429654  0.833640995  0.499750161
     0.836384075  0.844532704  0.844536245
     0.166826108  0.000182099  0.000185945
     0.167181655  0.000190467  0.332160737
     0.166962069  0.000059736  0.667000374
     0.167181624  0.332156699  0.000193347
     0.166658005  0.336803417  0.336806600
     0.172838629  0.329312841  0.664513402
     0.166962035  0.666996595  0.000063631
     0.172838826  0.664510084  0.329316568
     0.171253328  0.664585020  0.664588976
     0.499505655  0.000280714  0.000284179
     0.499382895  0.000243968  0.332874733
     0.496685772  0.003069285  0.666443723
     0.499383046  0.332870902  0.000252699
     0.498233870  0.333097953  0.333102631
     0.498682297  0.333001549  0.666123871
     0.496685729  0.666439935  0.003072752
     0.498680744  0.666119524  0.333005303
     0.496984840  0.666338602  0.666342544
     0.833544878  0.002831308  0.002834527
     0.833479548  0.999769632  0.332977557
     0.833351104  0.001927058  0.666749179
     0.833479249  0.332973883  0.999778986
     0.833834083  0.326485263  0.326490251
     0.833807460  0.333473059  0.666134758
     0.833351057  0.666745382  0.001930241
     0.833808887  0.666130721  0.333476219
     0.797950081  0.701893609  0.701897545

  ion indices of the primitive-cell ions
   primitive index   ion index
                 1           1
                 2           2
                 3           3
                 4           4
                 5           5
                 6           6
                 7           7
                 8           8
                 9           9
                10          10
                11          11
                12          12
                13          13
                14          14
                15          15
                16          16
                17          17
                18          18
                19          19
                20          20
                21          21
                22          22
                23          23
                24          24
                25          25
                26          26
                27          27
                28          28
                29          29
                30          30
                31          31
                32          32
                33          33
                34          34
                35          35
                36          36
                37          37
                38          38
                39          39
                40          40
                41          41
                42          42
                43          43
                44          44
                45          45
                46          46
                47          47
                48          48
                49          49
                50          50
                51          51
                52          52
                53          53
                54          54
                55          55
                56          56
                57          57
                58          58
                59          59
                60          60
                61          61
                62          62
                63          63
                64          64
                65          65
                66          66
                67          67
                68          68
                69          69
                70          70
                71          71
                72          72
                73          73
                74          74
                75          75
                76          76
                77          77
                78          78
                79          79
                80          80
                81          81
                82          82
                83          83
                84          84
                85          85
                86          86
                87          87
                88          88
                89          89
                90          90
                91          91
                92          92
                93          93
                94          94
                95          95
                96          96
                97          97
                98          98
                99          99
               100         100
               101         101
               102         102
               103         103
               104         104
               105         105
               106         106
               107         107
               108         108
               109         109
               110         110
               111         111
               112         112
               113         113
               114         114
               115         115
               116         116
               117         117
               118         118
               119         119
               120         120
               121         121
               122         122
               123         123
               124         124
               125         125
               126         126
               127         127
               128         128
               129         129
               130         130
               131         131
               132         132
               133         133
               134         134
               135         135
               136         136
               137         137
               138         138
               139         139
               140         140
               141         141
               142         142
               143         143
               144         144
               145         145
               146         146
               147         147
               148         148
               149         149
               150         150
               151         151
               152         152
               153         153
               154         154
               155         155
               156         156
               157         157
               158         158
               159         159
               160         160
               161         161
               162         162
               163         163
               164         164
               165         165
               166         166
               167         167
               168         168
               169         169
               170         170
               171         171
               172         172
               173         173
               174         174
               175         175
               176         176
               177         177
               178         178
               179         179
               180         180
               181         181
               182         182
               183         183
               184         184
               185         185
               186         186
               187         187
               188         188
               189         189
               190         190
               191         191
               192         192
               193         193
               194         194
               195         195
               196         196
               197         197
               198         198
               199         199
               200         200
               201         201
               202         202
               203         203
               204         204
               205         205
               206         206
               207         207
               208         208
               209         209
               210         210
               211         211
               212         212
               213         213
               214         214
               215         215
               216         216

----------------------------------------------------------------------------------------

 
 
 KPOINTS: Gamma-point only                        

Automatic generation of k-mesh.
 Grid dimensions read from file:
 generate k-points for:    1    1    1

 Generating k-lattice:

  Cartesian coordinates                     Fractional coordinates (reciprocal lattice)
     0.082788993  0.000000000  0.000000000     1.000000000  0.000000000  0.000000000
     0.000000000  0.082788993  0.000000000     0.000000000  1.000000000  0.000000000
     0.000000000  0.000000000  0.082788993     0.000000000  0.000000000  1.000000000

  Length of vectors
     0.082788993  0.082788993  0.082788993

  Shift w.r.t. Gamma in fractional coordinates (k-lattice)
     0.000000000  0.000000000  0.000000000

 
 Subroutine IBZKPT returns following result:
 ===========================================
 
 Found      1 irreducible k-points:
 
 Following reciprocal coordinates:
            Coordinates               Weight
  0.000000  0.000000  0.000000      1.000000
 
 Following cartesian coordinates:
            Coordinates               Weight
  0.000000  0.000000  0.000000      1.000000
 


--------------------------------------------------------------------------------------------------------




 Dimension of arrays:
   k-points           NKPTS =      1   k-points in BZ     NKDIM =      1   number of bands    NBANDS=    757
   number of dos      NEDOS =    301   number of ions     NIONS =    216
   non local maximal  LDIM  =      4   non local SUM 2l+1 LMDIM =      8
   total plane-waves  NPLWV = 512000
   max r-space proj   IRMAX =      1   max aug-charges    IRDMAX=   3893
   dimension x,y,z NGX =    80 NGY =   80 NGZ =   80
   dimension x,y,z NGXF=   160 NGYF=  160 NGZF=  160
   support grid    NGXF=   160 NGYF=  160 NGZF=  160
   ions per type =             108 108
   NGX,Y,Z   is equivalent  to a cutoff of  11.01, 11.01, 11.01 a.u.
   NGXF,Y,Z  is equivalent  to a cutoff of  22.02, 22.02, 22.02 a.u.

 SYSTEM =  Si                                      
 POSCAR =  Li   F                                  

 Startparameter for this run:
   NWRITE =      2    write-flag & timer
   PREC   = accura    normal or accurate (medium, high low for compatibility)
   ISTART =      1    job   : 0-new  1-cont  2-samecut
   ICHARG =      2    charge: 1-file 2-atom 10-const
   ISPIN  =      2    spin polarized calculation?
   LNONCOLLINEAR =      F non collinear calculations
   LSORBIT =      F    spin-orbit coupling
   INIWAV =      1    electr: 0-lowe 1-rand  2-diag
   LASPH  =      F    aspherical Exc in radial PAW
 Electronic Relaxation 1
   ENCUT  =  400.0 eV  29.40 Ry    5.42 a.u.  19.70 19.70 19.70*2*pi/ulx,y,z
   ENINI  =  400.0     initial cutoff
   ENAUG  =  628.9 eV  augmentation charge cutoff
   NELM   =     20;   NELMIN=  2; NELMDL=  0     # of ELM steps 
   EDIFF  = 0.1E-09   stopping-criterion for ELM
   LREAL  =      F    real-space projection
   NLSPLINE    = F    spline interpolate recip. space projectors
   LCOMPAT=      F    compatible to vasp.4.4
   GGA_COMPAT  = T    GGA compatible to vasp.4.4-vasp.4.6
   LMAXPAW     = -100 max onsite density
   LMAXMIX     =    2 max onsite mixed and CHGCAR
   VOSKOWN=      0    Vosko Wilk Nusair interpolation
   ROPT   =    0.00000   0.00000
 Ionic relaxation
   EDIFFG = -.1E-01   stopping-criterion for IOM
   NSW    =    500    number of steps for IOM
   NBLOCK =      1;   KBLOCK =    500    inner block; outer block 
   IBRION =      3    ionic relax: 0-MD 1-quasi-New 2-CG
   NFREE  =      0    steps in history (QN), initial steepest desc. (CG)
   ISIF   =      0    stress and relaxation
   IWAVPR =     11    prediction:  0-non 1-charg 2-wave 3-comb
   ISYM   =      2    0-nonsym 1-usesym 2-fastsym
   LCORR  =      T    Harris-Foulkes like correction to forces

   POTIM  = 0.0000    time-step for ionic-motion
   TEIN   =    0.0    initial temperature
   TEBEG  =    0.0;   TEEND  =   0.0 temperature during run
   SMASS  =  -3.00    Nose mass-parameter (am)
   estimated Nose-frequenzy (Omega)   =  0.10E-29 period in steps = 0.00E+00 mass=  -0.333E-26a.u.
   SCALEE = 1.0000    scale energy and forces
   NPACO  =    256;   APACO  = 10.0  distance and # of slots for P.C.
   PSTRESS=    0.0 pullay stress

  Mass of Ions in am
   POMASS =  19.00  7.01
  Ionic Valenz
   ZVAL   =   7.00  3.00
  Atomic Wigner-Seitz radii
   RWIGS  =  -1.00 -1.00
  virtual crystal weights 
   VCA    =   1.00  1.00
   NELECT =    1080.0000    total number of electrons
   NUPDOWN=      -1.0000    fix difference up-down

 DOS related values:
   EMIN   =  10.00;   EMAX   =-10.00  energy-range for DOS
   EFERMI =   0.00;   METHOD = LEGACY      
   ISMEAR =     0;   SIGMA  =   0.01  broadening in eV -4-tet -1-fermi 0-gaus

 Electronic relaxation 2 (details)
   IALGO  =     38    algorithm
   LDIAG  =      T    sub-space diagonalisation (order eigenvalues)
   LSUBROT=      F    optimize rotation matrix (better conditioning)
   TURBO    =      0    0=normal 1=particle mesh
   IRESTART =      0    0=no restart 2=restart with 2 vectors
   NREBOOT  =      0    no. of reboots
   NMIN     =      0    reboot dimension
   EREF     =   0.00    reference energy to select bands
   IMIX   =      4    mixing-type and parameters
     AMIX     =   0.40;   BMIX     =  1.00
     AMIX_MAG =   1.60;   BMIX_MAG =  1.00
     AMIN     =   0.10
     WC   =   100.;   INIMIX=   1;  MIXPRE=   1;  MAXMIX= -45

 Intra band minimization:
   WEIMIN = 0.0010     energy-eigenvalue tresh-hold
   EBREAK =  0.33E-13  absolut break condition
   DEPER  =   0.30     relativ break condition  

   TIME   =   0.40     timestep for ELM

  volume/ion in A,a.u.               =       8.16        55.06
  Fermi-wavevector in a.u.,A,eV,Ry     =   1.390557  2.627771 26.308875  1.933648
  Thomas-Fermi vector in A             =   2.514480
 
 Write flags
   LWAVE        =      T    write WAVECAR
   LDOWNSAMPLE  =      F    k-point downsampling of WAVECAR
   LCHARG       =      T    write CHGCAR
   LVTOT        =      F    write LOCPOT, total local potential
   LVHAR        =      F    write LOCPOT, Hartree potential only
   LELF         =      F    write electronic localiz. function (ELF)
   LORBIT       =      0    0 simple, 1 ext, 2 COOP (PROOUT), +10 PAW based schemes


 Dipole corrections
   LMONO  =      F    monopole corrections only (constant potential shift)
   LDIPOL =      F    correct potential (dipole corrections)
   IDIPOL =      0    1-x, 2-y, 3-z, 4-all directions 
   EPSILON=  1.0000000 bulk dielectric constant

 Exchange correlation treatment:
   GGA     =    --    GGA type
   LEXCH   =     8    internal setting for exchange type
   LIBXC   =     F    Libxc                    
   VOSKOWN =     0    Vosko Wilk Nusair interpolation
   LHFCALC =     F    Hartree Fock is set to
   LHFONE  =     F    Hartree Fock one center treatment
   AEXX    =    0.0000 exact exchange contribution

 Linear response parameters
   LEPSILON=     F    determine dielectric tensor
   LRPA    =     F    only Hartree local field effects (RPA)
   LNABLA  =     F    use nabla operator in PAW spheres
   LVEL    =     F    velocity operator in full k-point grid
   CSHIFT  =0.1000    complex shift for real part using Kramers Kronig
   OMEGAMAX=  -1.0    maximum frequency
   DEG_THRESHOLD= 0.2000000E-02 threshold for treating states as degnerate
   RTIME   =   -0.100 relaxation time in fs
  (WPLASMAI=    0.000 imaginary part of plasma frequency in eV, 0.658/RTIME)
   DFIELD  = 0.0000000 0.0000000 0.0000000 field for delta impulse in time
 
  Optional k-point grid parameters
   LKPOINTS_OPT  =     F    use optional k-point grid
   KPOINTS_OPT_MODE=     1    mode for optional k-point grid
 
 Orbital magnetization related:
   ORBITALMAG=     F  switch on orbital magnetization
   LCHIMAG   =     F  perturbation theory with respect to B field
   DQ        =  0.001000  dq finite difference perturbation B field
   LLRAUG    =     F  two centre corrections for induced B field
   LBONE     =     F  B-component reconstruction in AE one-centre
   LVGVCALC  =     T  calculate vGv susceptibility
   LVGVAPPL  =     F  apply vGv susceptibility instead of pGv for G=0

 Random number generation:
   RANDOM_GENERATOR = DEFAULT
   PCG_SEED         = not used


--------------------------------------------------------------------------------------------------------


 quickmin algorithm: (dynamic with friction)
 charge density and potential will be updated during run
 spin polarized calculation
 Variant of blocked Davidson
 Davidson routine will perform the subspace rotation
 perform sub-space diagonalisation
    after iterative eigenvector-optimisation
 modified Broyden-mixing scheme, WC =      100.0
 initial mixing is a Kerker type mixing with AMIX =  0.4000 and BMIX =      1.0000
 Hartree-type preconditioning will be used
 using additional bands           217
 reciprocal scheme for non local part
 calculate Harris-corrections to forces 
   (improved forces if not selfconsistent)
 use gradient corrections 
 use of overlap-Matrix (Vanderbilt PP)
 Gauss-broadening in eV      SIGMA  =   0.01


--------------------------------------------------------------------------------------------------------


  energy-cutoff  :      400.00
  volume of cell :     1762.31
      direct lattice vectors                 reciprocal lattice vectors
    12.078900337  0.000000000  0.000000000     0.082788993  0.000000000  0.000000000
     0.000000000 12.078900337  0.000000000     0.000000000  0.082788993  0.000000000
     0.000000000  0.000000000 12.078900337     0.000000000  0.000000000  0.082788993

  length of vectors
    12.078900337 12.078900337 12.078900337     0.082788993  0.082788993  0.082788993


 
 old parameters found on file WAVECAR:
  energy-cutoff  :      400.00
  volume of cell :     1762.31
      direct lattice vectors                 reciprocal lattice vectors
    12.078900337  0.000000000  0.000000000     0.082788993  0.000000000  0.000000000
     0.000000000 12.078900337  0.000000000     0.000000000  0.082788993  0.000000000
     0.000000000  0.000000000 12.078900337     0.000000000  0.000000000  0.082788993

  length of vectors

 
 k-points in units of 2pi/SCALE and weight: Gamma-point only                        
   0.00000000  0.00000000  0.00000000       1.000
 
 k-points in reciprocal lattice and weights: Gamma-point only                        
   0.00000000  0.00000000  0.00000000       1.000
 
 position of ions in fractional coordinates (direct lattice) 
   0.99965155  0.99991258  0.99991649
   0.00019213  0.99950457  0.33297359
   0.00021026  0.99958436  0.66656519
   0.00019208  0.33296960  0.99950769
   0.99861920  0.33401911  0.33402278
   0.00266232  0.33183346  0.66607897
   0.00021001  0.66656162  0.99958839
   0.00266224  0.66607554  0.33183653
   0.00553082  0.66383144  0.66383556
   0.33349030  0.99992815  0.99993225
   0.33346519  0.00027081  0.33256784
   0.33297776  0.00066173  0.66692064
   0.33346517  0.33256383  0.00027181
   0.33275336  0.33292213  0.33292546
   0.33469780  0.33099670  0.66704758
   0.33297775  0.66691695  0.00066586
   0.33469805  0.66704384  0.33100103
   0.33437445  0.66751170  0.66751560
   0.66677391  0.99947812  0.99948179
   0.66633513  0.99986682  0.33285569
   0.66449380  0.00239490  0.66734288
   0.66633494  0.33285164  0.99989459
   0.66738870  0.33257247  0.33257782
   0.66565833  0.33224892  0.66592298
   0.66449371  0.66733876  0.00239887
   0.66565840  0.66591786  0.33225268
   0.65860415  0.66892003  0.66892372
   0.99963856  0.16641101  0.16641458
   0.99885502  0.16468151  0.49953832
   0.00024843  0.16633414  0.83357008
   0.99885452  0.49953477  0.16468470
   0.97579336  0.50493663  0.50493959
   0.00108955  0.49883752  0.83075638
   0.00024829  0.83356687  0.16633784
   0.00108915  0.83075236  0.49884143
   0.99791731  0.83340656  0.83341028
   0.33346737  0.16636050  0.16636287
   0.33414080  0.16501144  0.49965570
   0.33381252  0.16597384  0.83378914
   0.33414095  0.49965197  0.16501430
   0.34840053  0.49921989  0.49922362
   0.33553404  0.49913219  0.83714676
   0.33381272  0.83378624  0.16597847
   0.33553482  0.83714335  0.49913583
   0.33313200  0.83398704  0.83399089
   0.66656751  0.16615961  0.16617624
   0.66560618  0.16541310  0.49914263
   0.66627049  0.16678380  0.83380836
   0.66560610  0.49914757  0.16542229
   0.66687744  0.49727866  0.49728097
   0.66463555  0.50192241  0.83547255
   0.66627051  0.83379941  0.16678009
   0.66463581  0.83546369  0.50193372
   0.67057508  0.82979489  0.82979865
   0.16656608  0.00007771  0.16600485
   0.16674627  0.00016591  0.49941451
   0.16642916  0.99979847  0.83393999
   0.16627707  0.33188162  0.16524700
   0.16522373  0.31914319  0.50109334
   0.16716229  0.33098431  0.83456644
   0.16750032  0.66822352  0.16439238
   0.17517212  0.68315028  0.49796137
   0.16664741  0.66767721  0.83471274
   0.50008245  0.00002822  0.16623215
   0.49993915  0.00064152  0.49986404
   0.50050968  0.99950374  0.83353100
   0.49991565  0.33258714  0.16641452
   0.50082818  0.33093076  0.49918106
   0.50010260  0.33266199  0.83387257
   0.49949704  0.66696685  0.16649885
   0.50105956  0.66804705  0.49932047
   0.49726520  0.66750752  0.83618501
   0.83335120  0.00028500  0.16668245
   0.83306151  0.99955319  0.49965998
   0.83304277  0.00248598  0.83562448
   0.83322253  0.33130175  0.16498346
   0.83134472  0.32698453  0.49708765
   0.83364951  0.33287237  0.83360511
   0.83336451  0.66696843  0.16684399
   0.82316726  0.67261617  0.49661176
   0.83299790  0.66848942  0.84029538
   0.16656601  0.16600077  0.00008136
   0.16627626  0.16524462  0.33188515
   0.16750041  0.16438868  0.66822707
   0.16674629  0.49941054  0.00016938
   0.16522342  0.50108985  0.31914684
   0.17517189  0.49795753  0.68315404
   0.16642914  0.83393629  0.99980262
   0.16716312  0.83456372  0.33098880
   0.16664733  0.83470859  0.66768157
   0.50008274  0.16622831  0.00003124
   0.49992458  0.16640619  0.33259054
   0.49949710  0.16649465  0.66697064
   0.49993921  0.49986026  0.00064484
   0.50082844  0.49917812  0.33093432
   0.50105878  0.49931703  0.66805032
   0.50050943  0.83352723  0.99950819
   0.50009410  0.83386424  0.33266589
   0.49726516  0.83618122  0.66751088
   0.83335090  0.16667888  0.00028797
   0.83321482  0.16497446  0.33130533
   0.83336457  0.16684046  0.66697196
   0.83306136  0.49965599  0.99955658
   0.83134439  0.49708552  0.32698737
   0.82316761  0.49660937  0.67261899
   0.83304303  0.83562102  0.00248972
   0.83365704  0.83359642  0.33287588
   0.83299832  0.84029150  0.66849318
   0.00058476  0.16669878  0.00020071
   0.00123023  0.16617288  0.33336928
   0.00094742  0.16656702  0.66593185
   0.00009574  0.49967577  0.99921707
   0.00341115  0.49947607  0.33367577
   0.02631516  0.48622920  0.66936631
   0.00151710  0.83313633  0.00144423
   0.00103175  0.83423564  0.33155533
   0.00116819  0.83234702  0.66547536
   0.33319438  0.16654932  0.00031588
   0.33235073  0.16739701  0.33339408
   0.33343013  0.16629124  0.66609776
   0.33390038  0.49923502  0.00101001
   0.32983555  0.49936691  0.33668855
   0.33240637  0.49908397  0.66260980
   0.33271649  0.83358795  0.00012695
   0.33354368  0.83339364  0.33286614
   0.33277239  0.83354285  0.66609965
   0.66621492  0.16697907  0.99996316
   0.66577648  0.16578249  0.33235661
   0.66609543  0.16699013  0.66679709
   0.66596165  0.49848787  0.00155580
   0.66236307  0.49961181  0.32785644
   0.66391346  0.49944068  0.66696953
   0.66588557  0.83403829  0.00171144
   0.66630944  0.83311199  0.33364498
   0.65469025  0.84446949  0.66374079
   0.00058470  0.00019759  0.16670261
   0.00009581  0.99921383  0.49967969
   0.00151714  0.00144030  0.83313988
   0.00123211  0.33336549  0.16617671
   0.00341103  0.33367269  0.49947954
   0.00102939  0.33155155  0.83423953
   0.00094760  0.66592833  0.16657055
   0.02631582  0.66936250  0.48623248
   0.00116830  0.66547156  0.83235093
   0.33319442  0.00031335  0.16655317
   0.33390040  0.00100711  0.49923910
   0.33271652  0.00012270  0.83359174
   0.33234887  0.33339065  0.16739986
   0.32983605  0.33668493  0.49937023
   0.33354568  0.33286200  0.83339669
   0.33342985  0.66609402  0.16629523
   0.33240631  0.66260639  0.49908783
   0.33277223  0.66609582  0.83354682
   0.66621496  0.99995190  0.16698313
   0.66596180  0.00154663  0.49849182
   0.66588562  0.00170956  0.83404248
   0.66577627  0.33235161  0.16579777
   0.66236322  0.32785175  0.49961581
   0.66630957  0.33364138  0.83312452
   0.66609536  0.66679444  0.16699284
   0.66391359  0.66696493  0.49944560
   0.65469002  0.66373508  0.84447388
   0.16683109  0.16710868  0.16711199
   0.16703133  0.16337933  0.49926945
   0.16737240  0.16625321  0.83356612
   0.16703116  0.49926568  0.16338273
   0.92528904  0.58714231  0.58714500
   0.17124357  0.49927245  0.83879002
   0.16737252  0.83356276  0.16625757
   0.17124360  0.83878634  0.49927646
   0.16657821  0.83306514  0.83306918
   0.49929426  0.16662082  0.16662484
   0.49805008  0.16662640  0.49931758
   0.49951505  0.16705877  0.83358524
   0.49804938  0.49931392  0.16663005
   0.50266999  0.49906498  0.49906909
   0.49756309  0.49837145  0.83348426
   0.49951455  0.83358167  0.16706221
   0.49756273  0.83348059  0.49837586
   0.49776403  0.83397743  0.83398137
   0.83355620  0.16553770  0.16554187
   0.83362396  0.16537915  0.49939490
   0.83346440  0.16739579  0.83341623
   0.83362436  0.49939109  0.16538265
   0.81977617  0.47738262  0.47738618
   0.83342902  0.49974601  0.83364447
   0.83346493  0.83341276  0.16739873
   0.83342965  0.83364099  0.49975016
   0.83638408  0.84453270  0.84453624
   0.16682611  0.00018210  0.00018595
   0.16718165  0.00019047  0.33216074
   0.16696207  0.00005974  0.66700037
   0.16718162  0.33215670  0.00019335
   0.16665800  0.33680342  0.33680660
   0.17283863  0.32931284  0.66451340
   0.16696203  0.66699659  0.00006363
   0.17283883  0.66451008  0.32931657
   0.17125333  0.66458502  0.66458898
   0.49950566  0.00028071  0.00028418
   0.49938289  0.00024397  0.33287473
   0.49668577  0.00306929  0.66644372
   0.49938305  0.33287090  0.00025270
   0.49823387  0.33309795  0.33310263
   0.49868230  0.33300155  0.66612387
   0.49668573  0.66643994  0.00307275
   0.49868074  0.66611952  0.33300530
   0.49698484  0.66633860  0.66634254
   0.83354488  0.00283131  0.00283453
   0.83347955  0.99976963  0.33297756
   0.83335110  0.00192706  0.66674918
   0.83347925  0.33297388  0.99977899
   0.83383408  0.32648526  0.32649025
   0.83380746  0.33347306  0.66613476
   0.83335106  0.66674538  0.00193024
   0.83380889  0.66613072  0.33347622
   0.79795008  0.70189361  0.70189755
 
 position of ions in cartesian coordinates  (Angst):
  12.07469143 12.07784438 12.07789160
   0.00232068 12.07291607  4.02195481
   0.00253968 12.07387991  8.05137448
   0.00232006  4.02190666 12.07295372
  12.06222183  4.03458351  4.03462789
   0.03215795  4.00818335  8.04550150
   0.00253671  8.05133139 12.07392857
   0.03215690  8.04546004  4.00822035
   0.06680617  8.01835386  8.01840356
   4.02819609 12.07803244 12.07808205
   4.02789284  0.00327113  4.01705382
   4.02200520  0.00799299  8.05566790
   4.02789256  4.01700535  0.00328316
   4.01929466  4.02133324  4.02137347
   4.04278142  3.99807610  8.05720121
   4.02200503  8.05562340  0.00804283
   4.04278433  8.05715602  3.99812840
   4.03887568  8.06280735  8.06285446
   8.05389566 12.07259659 12.07264094
   8.04859566 12.07729162  4.02053066
   8.02635442  0.02892774  8.06076815
   8.04859334  4.02048174 12.07762710
   8.06132160  4.01710975  4.01717440
   8.04042058  4.01320154  8.04361726
   8.02635327  8.06071840  0.02897569
   8.04042152  8.04355551  4.01324700
   7.95521393  8.07981842  8.07986292
  12.07453452  2.01006199  2.01010508
  12.06507019  1.98917154  6.03387359
   0.00300073  2.00913350 10.06860996
  12.06506418  6.03383071  1.98921007
  11.78651076  6.09907918  6.09911502
   0.01316059  6.02540869 10.03462354
   0.00299912 10.06857119  2.00917815
   0.01315571 10.03457492  6.02545588
  12.05374372 10.06663482 10.06667970
   4.02791916  2.00945190  2.00948052
   4.03605342  1.99315670  6.03529143
   4.03208817  2.00478146 10.07125589
   4.03605521  6.03524635  1.99319122
   4.20829526  6.03002724  6.03007241
   4.05288220  6.02896795 10.11181228
   4.03209060 10.07122090  2.00483737
   4.05289159 10.11177109  6.02901192
   4.02386819 10.07364633 10.07369290
   8.05140254  2.00702542  2.00722627
   8.03979075  1.99800832  6.02909408
   8.04781489  2.01456495 10.07148809
   8.03978978  6.02915380  1.99811936
   8.05514618  6.00657942  6.00660727
   8.02806657  6.06267081 10.09158972
   8.04781504 10.07138000  2.01452010
   8.02806969 10.09148264  6.06280736
   8.09980952 10.02300981 10.02305516
   2.01193510  0.00093869  2.00515605
   2.01411158  0.00200405  6.03237807
   2.01028122 12.07646607 10.07307804
   2.00844415  4.00876506  1.99600203
   1.99572095  3.85489882  6.05265657
   2.01913663  3.99792654 10.08064480
   2.02321964  8.07140525  1.98567916
   2.11588658  8.25170415  6.01482577
   2.01291741  8.06480647 10.08241199
   6.04044601  0.00034088  2.00790159
   6.03871522  0.00774884  6.03780791
   6.04560660 12.07290608 10.06813782
   6.03843129  4.01728686  2.01010444
   6.04945369  3.99727963  6.02955825
   6.04068942  4.01819104 10.07226362
   6.03337492  8.05622615  2.01112298
   6.05224855  8.06927378  6.03124221
   6.00641677  8.06275684 10.10019540
  10.06596615  0.00344243  2.01334074
  10.06246694 12.07350332  6.03534309
  10.06224058  0.03002793 10.09342479
  10.06441189  4.00176079  1.99281877
  10.04173007  3.94961355  6.00427213
  10.06956931  4.02073216 10.06903307
  10.06612689  8.05624522  2.01529196
   9.94295527  8.12446372  5.99852401
  10.06169867  8.07461714 10.14984419
   2.01193418  2.00510674  0.00098270
   2.00843437  1.99597331  4.00880769
   2.02322072  1.98563452  8.07144821
   2.01411184  6.03233013  0.00204597
   1.99571718  6.05261439  3.85494285
   2.11588380  6.01477943  8.25174957
   2.01028101 10.07303337 12.07651621
   2.01914669 10.08061202  3.99798073
   2.01291652 10.08236181  8.06485910
   6.04044960  2.00785520  0.00037729
   6.03853916  2.01000378  4.01732802
   6.03337571  2.01107225  8.05627185
   6.03871592  6.03776224  0.00778892
   6.04945677  6.02952273  3.99732272
   6.05223903  6.03120060  8.06931329
   6.04560347 10.06809232 12.07295982
   6.04058677 10.07216308  4.01823817
   6.00641635 10.10014967  8.06279745
  10.06596251  2.01329758  0.00347832
  10.06431883  1.99271002  4.00180411
  10.06612759  2.01524928  8.05628783
  10.06246510  6.03529485 12.07354425
  10.04172608  6.00424651  3.94964781
   9.94295956  5.99849505  8.12449770
  10.06224373 10.09338305  0.03007311
  10.06966034 10.06892809  4.02077454
  10.06170369 10.14979726  8.07466252
   0.00706326  2.01353796  0.00242441
   0.01485984  2.00718560  4.02673432
   0.01144379  2.01194647  8.04372443
   0.00115647  6.03553380 12.06944340
   0.04120296  6.03312169  4.03043632
   0.31785824  5.87311409  8.08520898
   0.01832485 10.06337068  0.01744466
   0.01246235 10.07664910  4.00482376
   0.01411044 10.05383676  8.03821055
   4.02462167  2.01173259  0.00381548
   4.01443139  2.02197180  4.02703388
   4.02746931  2.00861529  8.04572842
   4.03314943  6.03021000  0.01219984
   3.98405070  6.03180312  4.06682743
   4.01510346  6.02838559  8.00359772
   4.01884927 10.06882579  0.00153347
   4.02884092 10.06647871  4.02065698
   4.01952447 10.06828102  8.04575133
   8.04714358  2.01692350 12.07845534
   8.04184779  2.00247021  4.01450242
   8.04570034  2.01705711  8.05417557
   8.04408435  6.02118529  0.01879235
   8.00061746  6.03476122  3.96014527
   8.01934453  6.03269418  8.05625847
   8.04316545 10.07426539  0.02067228
   8.04828538 10.06307665  4.03006447
   7.90793829 10.20026282  8.01725886
   0.00706259  0.00238670  2.01358425
   0.00115725 12.06940429  6.03558113
   0.01832537  0.01739722 10.06341363
   0.01488247  4.02668855  2.00723190
   0.04120152  4.03039918  6.03316352
   0.01243390  4.00477818 10.07669616
   0.01144599  8.04368187  2.01198907
   0.31786614  8.08516298  5.87315364
   0.01411182  8.03816467 10.05388395
   4.02462214  0.00378491  2.01177916
   4.03314964  0.01216474  6.03025930
   4.01884973  0.00148205 10.06887160
   4.01440889  4.02699243  2.02200618
   3.98405681  4.06678377  6.03184329
   4.02886497  4.02060688 10.06651554
   4.02746587  8.04568329  2.00866356
   4.01510272  8.00355659  6.02843218
   4.01952262  8.04570499 10.06832891
   8.04714411 12.07831940  2.01697263
   8.04408625  0.01868155  6.02123299
   8.04316605  0.02064961 10.07431593
   8.04184521  4.01444200  2.00265476
   8.00061929  3.96008864  6.03480957
   8.04828690  4.03002100 10.06322800
   8.04569952  8.05414362  2.01708988
   8.01934613  8.05620294  6.03275368
   7.90793551  8.01718990 10.20031585
   2.01513616  2.01848915  2.01852910
   2.01755478  1.97344259  6.03062589
   2.02167460  2.00815593 10.06856211
   2.01755275  6.03058041  1.97348373
  11.17647410  7.09203347  7.09206591
   2.06843406  6.03066213 10.13166108
   2.02167596 10.06852147  2.00820865
   2.06843437 10.13161664  6.03071058
   2.01208162 10.06251081 10.06255955
   6.03092566  2.01259629  2.01264489
   6.01589732  2.01266374  6.03120723
   6.03359251  2.01788618 10.06879309
   6.01588888  6.03116312  2.01270777
   6.07170066  6.02815610  6.02820578
   6.01001501  6.01977908 10.06757334
   6.03358642 10.06874989  2.01792782
   6.01001059 10.06752899  6.01983233
   6.01244210 10.07353030 10.07357791
  10.06844229  1.99951339  1.99956376
  10.06926069  1.99759825  6.03214126
  10.06733342  2.02195701 10.06675159
  10.06926555  6.03209523  1.99764060
   9.90199461  5.76625714  5.76630013
  10.06690612  6.03638225 10.06950847
  10.06733978 10.06670965  2.02199254
  10.06691372 10.06946649  6.03643238
  10.10259989 10.20102637 10.20106913
   2.01507593  0.00219956  0.00224602
   2.01937054  0.00230063  4.01213644
   2.01671819  0.00072155  8.05663104
   2.01937017  4.01208766  0.00233542
   2.01304543  4.06821491  4.06825336
   2.08770057  3.97773699  8.02659115
   2.01671778  8.05658539  0.00076859
   2.08770296  8.02655107  3.97778201
   2.06855188  8.02745622  8.02750400
   6.03347903  0.00339071  0.00343258
   6.03199621  0.00294687  4.02076073
   5.99941793  0.03707359  8.04990731
   6.03199804  4.02071445  0.00305233
   6.01811726  4.02345698  4.02351348
   6.02353376  4.02229252  8.04604385
   5.99941742  8.04986156  0.03711546
   6.02351501  8.04599135  4.02233787
   6.00303035  8.04863757  8.04868518
  10.06830550  0.03419909  0.03423796
  10.06751640 12.07611775  4.02200273
  10.06596493  0.02327674  8.05359688
  10.06751278  4.02195835 12.07623073
  10.07179879  3.94358296  3.94364320
  10.07147721  4.02798785  8.04617535
  10.06596437  8.05355102  0.02331519
  10.07149444  8.04612659  4.02802602
   9.63835950  8.47810295  8.47815050
 


--------------------------------------------------------------------------------------------------------


 k-point   1 :   0.0000 0.0000 0.0000  plane waves:   31919

 maximum and minimum number of plane-waves per node :     31919    31919

 maximum number of plane-waves:     31919
 maximum index in each direction: 
   IXMAX=   19   IYMAX=   19   IZMAX=   19
   IXMIN=  -19   IYMIN=  -19   IZMIN=  -19


 serial   3D FFT for wavefunctions
 parallel 3D FFT for charge:
    minimum data exchange during FFTs selected (reduces bandwidth)


 total amount of memory used by VASP MPI-rank0  1466161. kBytes
=======================================================================

   base      :      30000. kBytes
   nonl-proj :     114397. kBytes
   fftplans  :     141100. kBytes
   grid      :     372121. kBytes
   one-center:       1327. kBytes
   wavefun   :     807216. kBytes
 
     INWAV:  cpu time      0.4629: real time      0.8896
 Broyden mixing: mesh for mixing (old mesh)
   NGX = 39   NGY = 39   NGZ = 39
  (NGX  =160   NGY  =160   NGZ  =160)
  gives a total of  59319 points

 initial charge density was supplied:
 charge density of overlapping atoms calculated
 number of electron    1080.0000000 magnetization     216.0000000
 keeping initial charge density in first step


--------------------------------------------------------------------------------------------------------


 Maximum index for augmentation-charges          3648 (set IRDMAX)


--------------------------------------------------------------------------------------------------------


 First call to EWALD:  gamma=   0.147
 Maximum number of real-space cells 3x 3x 3
 Maximum number of reciprocal cells 3x 3x 3

    FEWALD:  cpu time      0.3770: real time      0.3787


--------------------------------------- Ionic step        1  -------------------------------------------




--------------------------------------- Iteration      1(   1)  ---------------------------------------


    POTLOK:  cpu time      0.1434: real time      0.1623
    SETDIJ:  cpu time      0.9864: real time      0.9906
     EDDAV:  cpu time      9.5325: real time      9.5754
       DOS:  cpu time      0.0004: real time      0.0004
    CHARGE:  cpu time      0.5198: real time      0.5221
    MIXING:  cpu time      0.0855: real time      0.0859
    --------------------------------------------
      LOOP:  cpu time     11.2680: real time     11.3367

 eigenvalue-minimisations  :  3028
 total energy-change (2. order) :-0.9533928E+03  (-0.1716629E+03)
 number of electron    1079.9999912 magnetization     142.4005295
 augmentation part      257.2038100 magnetization     143.8585476

 Broyden mixing:
  rms(total) = 0.13392E+02    rms(broyden)= 0.13380E+02
  rms(prec ) = 0.13729E+02
  weight for this iteration     100.00

 Free energy of the ion-electron system (eV)
  ---------------------------------------------------
  alpha Z        PSCENC =      2167.32059008
  Ewald energy   TEWEN  =    -59966.68320993
  -Hartree energ DENC   =    -23162.34505598
  -exchange      EXHF   =         0.00000000
  -V(xc)+E(xc)   XCENC  =      5436.01207276
  PAW double counting   =     53780.49107149   -55988.61141440
  entropy T*S    EENTRO =        -0.00000000
  eigenvalues    EBANDS =    -16314.43465025
  atomic energy  EATOM  =     93094.85783989
  Solvation  Ediel_sol  =         0.00000000
  ---------------------------------------------------
  free energy    TOTEN  =      -953.39275634 eV

  energy without entropy =     -953.39275634  energy(sigma->0) =     -953.39275634


--------------------------------------------------------------------------------------------------------




--------------------------------------- Iteration      1(   2)  ---------------------------------------


    POTLOK:  cpu time      0.1033: real time      0.1042
    SETDIJ:  cpu time      0.9863: real time      0.9905
     EDDAV:  cpu time      9.5629: real time      9.6055
       DOS:  cpu time      0.0003: real time      0.0003
    CHARGE:  cpu time      0.4927: real time      0.4951
    MIXING:  cpu time      0.0870: real time      0.0874
    --------------------------------------------
      LOOP:  cpu time     11.2325: real time     11.2829

 eigenvalue-minimisations  :  3172
 total energy-change (2. order) : 0.4750834E+03  (-0.6397286E+02)
 number of electron    1079.9999908 magnetization     104.0895583
 augmentation part      256.4685384 magnetization      89.8339270

 Broyden mixing:
  rms(total) = 0.64149E+01    rms(broyden)= 0.64119E+01
  rms(prec ) = 0.66599E+01
  weight for this iteration     100.00

 eigenvalues of (default mixing * dielectric matrix)
  average eigenvalue GAMMA=   0.7398
  0.7398

 Free energy of the ion-electron system (eV)
  ---------------------------------------------------
[...]
      4.02600      2.01310      8.04430         0.000020      0.000584     -0.000305
      4.03490      6.03393      0.01070         0.000432      0.000480     -0.000384
      3.96186      6.03282      4.09068        -0.000414     -0.000483     -0.000023
      4.00986      6.02952      7.98499        -0.005990      0.000767     -0.000262
      4.02236     10.06785      0.00217         0.000667     -0.000034      0.000290
      4.02867     10.06442      4.02646        -0.001036     -0.000868      0.000720
      4.02483     10.06690      8.04614        -0.000395     -0.000517      0.000447
      8.04808      2.01329     12.08035        -0.000570      0.000125     -0.000265
      8.04332      2.00503      4.01898        -0.000364      0.000272      0.000316
      8.04346      2.01044      8.05470        -0.000295      0.000147     -0.000437
      8.04239      6.03112      0.00845        -0.000320      0.000368     -0.000475
      8.00370      6.03575      3.96796         0.001063     -0.000175      0.001727
      8.00268      6.02247      8.06470         0.002108      0.000986     -0.001149
      8.04342     10.07458      0.01308        -0.000204     -0.000519     -0.000562
      8.04327     10.06999      4.02222         0.000121     -0.000722      0.000497
      7.97660     10.13604      8.04886         0.002532     -0.003115      0.000285
      0.00709      0.00360      2.01063        -0.000405      0.001075     -0.001167
      0.00701     12.08009      6.03355        -0.000485      0.002605     -0.000221
      0.00994      0.00614     10.06662        -0.000139      0.000189      0.001128
      0.01743      4.02924      2.01367        -0.000460     -0.001230     -0.000251
      0.07059      4.03912      6.03048         0.000366     -0.001770     -0.001957
      0.01342      4.00050     10.08443        -0.000962     -0.005253      0.005588
      0.01648      8.04400      2.00887        -0.000370      0.000383     -0.001769
      0.31251      8.14365      5.85722        -0.009115      0.020082     -0.012198
      0.02676      8.04669     10.08202        -0.000610      0.002751      0.003264
      4.02425      0.00325      2.01352         0.000189     -0.000347      0.000356
      4.03490      0.01065      6.03398         0.000433     -0.000384      0.000479
      4.02236      0.00212     10.06789         0.000667      0.000291     -0.000034
      4.01456      4.03134      2.02372         0.000407      0.000043     -0.000189
      3.96186      4.09062      6.03287        -0.000414     -0.000023     -0.000483
      4.02867      4.02641     10.06447        -0.001036      0.000720     -0.000868
      4.02600      8.04425      2.01315         0.000020     -0.000305      0.000584
      4.00986      7.98493      6.02958        -0.005990     -0.000262      0.000768
      4.02483      8.04609     10.06695        -0.000396      0.000446     -0.000517
      8.04808     12.08030      2.01334        -0.000570     -0.000264      0.000125
      8.04239      0.00840      6.03117        -0.000321     -0.000474      0.000368
      8.04342      0.01303     10.07462        -0.000204     -0.000563     -0.000518
      8.04332      4.01893      2.00508        -0.000363      0.000316      0.000272
      8.00370      3.96792      6.03580         0.001063      0.001726     -0.000175
      8.04327      4.02218     10.07004         0.000121      0.000497     -0.000723
      8.04346      8.05466      2.01048        -0.000295     -0.000437      0.000148
      8.00268      8.06465      6.02252         0.002108     -0.001149      0.000987
      7.97660      8.04882     10.13609         0.002532      0.000285     -0.003115
      2.01604      2.02139      2.02145         0.000361     -0.000224     -0.000224
      2.02044      2.00473      6.03244         0.000524     -0.000709     -0.000469
      2.02028      2.01398     10.06372         0.000349      0.000051     -0.000115
      2.02044      6.03239      2.00479         0.000524     -0.000468     -0.000709
     10.95730      7.09238      7.09244         0.028403     -0.004064     -0.004065
      2.07489      6.03352     10.10439        -0.000667      0.001346      0.002092
      2.02028     10.06366      2.01403         0.000349     -0.000115      0.000050
      2.07490     10.10433      6.03358        -0.000666      0.002094      0.001346
      2.01998     10.06031     10.06036         0.000528      0.000962      0.000961
      6.03130      2.01383      2.01388        -0.000109      0.000112      0.000111
      6.01712      2.01450      6.03413         0.000330      0.000401      0.000187
      6.03311      2.01459     10.06847        -0.000030      0.000685     -0.000648
      6.01713      6.03408      2.01455         0.000331      0.000187      0.000401
      6.03800      6.02616      6.02621        -0.001058      0.001012      0.001012
      6.02108      6.03055     10.07051        -0.000213      0.000617     -0.001813
      6.03311     10.06842      2.01464        -0.000030     -0.000648      0.000685
      6.02108     10.07046      6.03060        -0.000213     -0.001812      0.000616
      6.02083     10.07393     10.07397         0.000617     -0.000499     -0.000499
     10.06930      2.00379      2.00384        -0.001023      0.000121      0.000120
     10.07176      1.99700      6.03285        -0.000867      0.000356     -0.000257
     10.06681      2.01337     10.06954        -0.000951     -0.000844     -0.000126
     10.07176      6.03280      1.99705        -0.000867     -0.000257      0.000357
      9.88390      5.78937      5.78942         0.005375      0.004478      0.004481
     10.06032      6.02551     10.08872        -0.000221      0.001034      0.001853
     10.06681     10.06949      2.01342        -0.000951     -0.000126     -0.000844
     10.06032     10.08867      6.02556        -0.000222      0.001855      0.001034
     10.07084     10.12835     10.12840        -0.000748     -0.002064     -0.002064
      2.01565      0.00073      0.00078         0.000622      0.000224      0.000223
      2.02006      0.00432      4.01675         0.000327      0.000326      0.000024
      2.02079      0.00297      8.05628         0.000570      0.000665      0.000563
      2.02006      4.01669      0.00437         0.000327      0.000025      0.000327
      2.01837      4.08988      4.08993        -0.000332     -0.000904     -0.000904
      2.08139      4.02607      7.99635        -0.002220     -0.000179     -0.001926
      2.02079      8.05623      0.00302         0.000570      0.000563      0.000664
      2.08139      7.99629      4.02613        -0.002221     -0.001926     -0.000179
      2.08406      7.99927      7.99934        -0.006367      0.001207      0.001206
      6.03350      0.00361      0.00366         0.000034      0.000028      0.000028
      6.03272      0.00352      4.02280        -0.000148     -0.000759      0.000576
      6.02022      0.01623      8.05189         0.000588     -0.000729     -0.000062
      6.03272      4.02275      0.00357        -0.000148      0.000577     -0.000759
      6.01649      4.02730      4.02735         0.000244      0.000438      0.000438
      6.02265      4.02135      8.04618        -0.000570      0.001711     -0.000616
      6.02022      8.05185      0.01627         0.000588     -0.000062     -0.000728
      6.02265      8.04613      4.02140        -0.000569     -0.000615      0.001711
      6.00585      8.05140      8.05145        -0.000530     -0.001088     -0.001089
     10.06759      0.01243      0.01248        -0.000863     -0.000640     -0.000639
     10.06685     12.07959      4.01978        -0.001047      0.000579      0.000026
     10.06552      0.02062      8.05505        -0.000792     -0.000533      0.000064
     10.06685      4.01973     12.07965        -0.001047      0.000026      0.000579
     10.07266      3.96824      3.96829        -0.000322      0.001214      0.001215
     10.06012      4.00316      8.05650         0.000321     -0.001995     -0.000990
     10.06552      8.05501      0.02066        -0.000792      0.000063     -0.000532
     10.06013      8.05645      4.00321         0.000321     -0.000989     -0.001993
      9.77028      8.31606      8.31610         0.010880     -0.008131     -0.008132
 -----------------------------------------------------------------------------------
    total drift:                                0.010865      0.003741      0.003846


--------------------------------------------------------------------------------------------------------



  FREE ENERGIE OF THE ION-ELECTRON SYSTEM (eV)
  ---------------------------------------------------
  free  energy   TOTEN  =     -1054.27471426 eV

  energy  without entropy=    -1054.27471426  energy(sigma->0) =    -1054.27471426
 
 d Force =-0.3579655E-03[-0.511E-03,-0.205E-03]  d Energy =-0.3611201E-03 0.315E-05
 d Force = 0.4163423E-01[ 0.391E-01, 0.441E-01]  d Ewald  = 0.4163137E-01 0.286E-05


--------------------------------------------------------------------------------------------------------


    POTLOK:  cpu time      1.1280: real time      1.1325


--------------------------------------------------------------------------------------------------------


 NEB: the previous image is higher in energy:  T
 NEB: the next image is higher in energy    :  F
 NEB: only prev energy greater

 NEB: Tangent
 ----------------------------------------------
      0.00163     -0.00553     -0.00553
      0.00384     -0.02873      0.02340
      0.00042     -0.01735     -0.01198
      0.00384      0.02340     -0.02873
     -0.00822      0.04730      0.04730
      0.00238      0.08764     -0.03332
      0.00043     -0.01197     -0.01735
      0.00238     -0.03333      0.08765
      0.00403     -0.11378     -0.11377
     -0.01117      0.00246      0.00246
     -0.00724      0.00876     -0.00345
     -0.01520      0.00569      0.00245
     -0.00724     -0.00345      0.00876
     -0.01118      0.00046      0.00046
      0.02027     -0.01846      0.00306
     -0.01519      0.00246      0.00569
      0.02027      0.00306     -0.01847
      0.04648      0.01336      0.01335
      0.00770      0.00447      0.00447
      0.00434      0.00896     -0.00313
      0.00004      0.01772      0.00650
      0.00434     -0.00312      0.00896
      0.00686     -0.00252     -0.00252
     -0.03286     -0.02568      0.00290
      0.00004      0.00651      0.01772
     -0.03286      0.00289     -0.02568
     -0.09860      0.03112      0.03111
      0.00233      0.01099      0.01099
      0.00049      0.00230      0.00786
      0.00314      0.02341     -0.02438
      0.00050      0.00786      0.00230
     -0.07811      0.16103      0.16103
      0.00715      0.01891     -0.12465
      0.00314     -0.02438      0.02341
      0.00714     -0.12466      0.01891
     -0.00555     -0.03386     -0.03387
     -0.01072      0.00253      0.00253
     -0.01665      0.00231     -0.00115
     -0.00630     -0.00480      0.00558
     -0.01664     -0.00115      0.00231
      0.02822     -0.00671     -0.00671
      0.01575     -0.00378      0.02091
     -0.00629      0.00558     -0.00480
      0.01575      0.02092     -0.00379
     -0.01057      0.00594      0.00594
      0.00907      0.00185      0.00185
      0.00721     -0.00405     -0.00268
      0.00294     -0.00126      0.00864
      0.00721     -0.00268     -0.00405
     -0.05272     -0.01974     -0.01974
     -0.03998      0.00341      0.03639
      0.00294      0.00864     -0.00126
     -0.03998      0.03639      0.00341
      0.00098      0.00684      0.00683
     -0.00949     -0.00092      0.00298
     -0.01247     -0.01652      0.00163
     -0.01268     -0.00473     -0.00630
     -0.01394      0.00827      0.00671
     -0.01469      0.02654      0.01039
      0.01478      0.00261     -0.01150
     -0.00948     -0.00364      0.00757
      0.12935     -0.02429      0.00098
     -0.00013     -0.00716     -0.02683
     -0.00144      0.00724     -0.00097
     -0.00683      0.01913     -0.00179
     -0.00362      0.00492      0.00831
     -0.00219     -0.00290      0.00279
     -0.00794     -0.01694     -0.00573
     -0.00283     -0.00995      0.01474
     -0.00554      0.00395     -0.00926
     -0.01161      0.01057     -0.00840
     -0.01771      0.00987      0.03092
      0.01228      0.00165      0.00411
      0.01260     -0.01604      0.00377
      0.00999      0.00874      0.00308
      0.01362      0.00345     -0.00139
      0.00335      0.00260     -0.00032
     -0.01085      0.00094      0.00016
      0.00997     -0.00188      0.01418
     -0.23971      0.04286     -0.02182
     -0.01467      0.00906      0.01219
     -0.00949      0.00298     -0.00092
     -0.01394      0.00671      0.00827
     -0.00948      0.00757     -0.00364
     -0.01246      0.00163     -0.01652
     -0.01469      0.01039      0.02654
      0.12935      0.00098     -0.02429
     -0.01268     -0.00630     -0.00473
      0.01478     -0.01150      0.00261
     -0.00013     -0.02683     -0.00716
     -0.00144     -0.00097      0.00724
     -0.00219      0.00279     -0.00290
     -0.00554     -0.00926      0.00395
     -0.00683     -0.00179      0.01913
     -0.00794     -0.00573     -0.01694
     -0.01161     -0.00839      0.01057
     -0.00362      0.00832      0.00491
     -0.00283      0.01474     -0.00996
     -0.01771      0.03092      0.00986
      0.01228      0.00411      0.00165
      0.01362     -0.00139      0.00345
      0.00997      0.01418     -0.00188
      0.01260      0.00378     -0.01604
      0.00336     -0.00032      0.00261
     -0.23971     -0.02183      0.04287
      0.00999      0.00308      0.00874
     -0.01085      0.00015      0.00095
     -0.01467      0.01220      0.00906
      0.00309      0.01910     -0.01794
      0.00170      0.00070      0.01908
     -0.00053      0.02660     -0.00767
      0.00242      0.00725     -0.04202
     -0.01800      0.02965      0.02868
      0.12985      0.17954     -0.28701
      0.00300     -0.01722     -0.00143
      0.00656     -0.08383      0.08071
      0.00100     -0.04738     -0.03467
     -0.00894      0.00017      0.00362
     -0.01126      0.00190      0.00004
     -0.00634     -0.00399      0.00310
     -0.01138     -0.00320      0.00488
     -0.00105      0.00367      0.00086
      0.07850     -0.00750      0.00185
     -0.01194      0.00374      0.00212
      0.00689      0.00811     -0.00433
      0.00243      0.01066     -0.00178
      0.00676      0.00218      0.00439
      0.00458     -0.00305     -0.00274
      0.00156      0.00057      0.00667
      0.00127     -0.00474      0.00845
     -0.02216      0.00421     -0.02339
     -0.04777     -0.01347      0.01777
      0.00184      0.00917      0.01153
     -0.00696      0.01013     -0.00286
     -0.05434      0.05402     -0.00364
      0.00309     -0.01794      0.01911
      0.00241     -0.04202      0.00725
      0.00300     -0.00143     -0.01722
      0.00170      0.01909      0.00070
     -0.01800      0.02868      0.02965
      0.00656      0.08070     -0.08382
     -0.00052     -0.00767      0.02660
      0.12985     -0.28702      0.17956
      0.00101     -0.03467     -0.04738
     -0.00893      0.00362      0.00017
     -0.01138      0.00488     -0.00320
     -0.01194      0.00212      0.00374
     -0.01126      0.00004      0.00190
     -0.00105      0.00086      0.00367
      0.00689     -0.00433      0.00811
     -0.00633      0.00310     -0.00399
      0.07850      0.00185     -0.00750
      0.00243     -0.00177      0.01066
      0.00676      0.00440      0.00217
      0.00127      0.00846     -0.00475
      0.00184      0.01154      0.00916
      0.00458     -0.00274     -0.00305
     -0.02216     -0.02339      0.00421
     -0.00696     -0.00286      0.01013
      0.00155      0.00667      0.00057
     -0.04776      0.01776     -0.01347
     -0.05433     -0.00364      0.05401
     -0.01127      0.00267      0.00268
     -0.01454      0.00889      0.00596
     -0.00990      0.00573     -0.00249
     -0.01454      0.00596      0.00889
     -0.42362      0.07152      0.07153
      0.00502     -0.01187     -0.03146
     -0.00990     -0.00250      0.00573
      0.00502     -0.03147     -0.01186
     -0.00695     -0.00981     -0.00981
     -0.00265      0.00087      0.00087
     -0.00963     -0.00473     -0.00183
     -0.00283     -0.00321      0.00887
     -0.00963     -0.00183     -0.00474
      0.00800     -0.01418     -0.01418
     -0.00579     -0.00681      0.02585
     -0.00282      0.00887     -0.00321
     -0.00579      0.02584     -0.00681
     -0.01340      0.01241      0.01240
      0.01357     -0.00165     -0.00165
      0.00943     -0.00503      0.00621
      0.01206      0.01403     -0.00092
      0.00943      0.00622     -0.00504
     -0.09033     -0.05184     -0.05183
     -0.00735     -0.00850     -0.02766
      0.01206     -0.00093      0.01404
     -0.00736     -0.02766     -0.00850
      0.00751      0.03017      0.03017
     -0.01193     -0.00118     -0.00118
     -0.01023     -0.00937      0.00508
     -0.01191     -0.00859     -0.00672
     -0.01022      0.00507     -0.00936
     -0.00522      0.01063      0.01063
      0.02435      0.00673      0.02140
     -0.01191     -0.00672     -0.00859
      0.02435      0.02139      0.00673
      0.08740     -0.00832     -0.00830
     -0.00374      0.00540      0.00540
     -0.00268      0.01027     -0.00378
     -0.01483      0.01760      0.00326
     -0.00268     -0.00377      0.01027
     -0.00688     -0.00498     -0.00498
      0.00034     -0.02129      0.00656
     -0.01483      0.00327      0.01759
      0.00034      0.00655     -0.02128
     -0.00595      0.01629      0.01630
      0.01312      0.00931      0.00931
      0.01358     -0.01177      0.00435
      0.00809      0.00630     -0.00114
      0.01358      0.00435     -0.01177
     -0.00074     -0.01499     -0.01500
     -0.01442      0.03452      0.01502
      0.00809     -0.00114      0.00629
     -0.01441      0.01500      0.03452
     -0.20272      0.12017      0.12016

 NEB: forces: par spring, perp REAL, dneb     0.002588    0.008996    0.000000
 NEB: distance to prev, next image, angle between     0.687439    0.687957  122.499890
 NEB: projections on to tangent (spring, REAL)     0.002588   -0.066604

 stress matrix after NEB project (eV)
      0.00000      0.00000      0.00000
      0.00000      0.00000      0.00000
      0.00000      0.00000      0.00000
  FORCES: max atom, RMS     0.003158    0.000637
  FORCE total and by dimension    0.009361    0.003147
  Stress total and by dimension    0.000000    0.000000
 OPT: skip step - force has converged


--------------------------------------------------------------------------------------------------------


  
 reached required accuracy - stopping structural energy minimisation
 writing wavefunctions
     LOOP+:  cpu time    265.9030: real time    267.5426
    4ORBIT:  cpu time      0.0000: real time      0.0000

 total amount of memory used by VASP MPI-rank0  1466161. kBytes
=======================================================================

   base      :      30000. kBytes
   nonl-proj :     114397. kBytes
   fftplans  :     141100. kBytes
   grid      :     372121. kBytes
   one-center:       1327. kBytes
   wavefun   :     807216. kBytes
 
  
  
 General timing and accounting informations for this job:
 ========================================================
  
                  Total CPU time used (sec):     7147.666
                            User time (sec):     7070.554
                          System time (sec):       77.111
                         Elapsed time (sec):     7183.614
  
                   Maximum memory used (kb):     3138512.
                   Average memory used (kb):          N/A
  
                          Minor page faults:       970538
                          Major page faults:            0
                 Voluntary context switches:       285749
