 ----------------------------------------------------
    OOO  PPPP  EEEEE N   N M   M PPPP
   O   O P   P E     NN  N MM MM P   P
   O   O PPPP  EEEEE N N N M M M PPPP   -- VERSION
   O   O P     E     N  NN M   M P
    OOO  P     EEEEE N   N M   M P
 ----------------------------------------------------
 running  294 mpi-ranks, with    1 threads/rank
 each image running on   42 cores
 distrk:  each k-point on   42 cores,    1 groups
 distr:  one band on    1 cores,   42 groups
 vasp.6.3.2 27Jun22 (build Aug 05 2024 15:42:26) complex                        
  
 POSCAR found type information on POSCAR LiNbMoO 
 01/POSCAR found :  4 types and      93 ions
 scaLAPACK will be used
 -----------------------------------------------------------------------------
|                                                                             |
|               ----> ADVICE to this user running VASP <----                  |
|                                                                             |
|     You have a (more or less) 'large supercell' and for larger cells it     |
|     might be more efficient to use real-space projection operators.         |
|     Therefore, try LREAL= Auto in the INCAR file.                           |
|     Mind: If you want to do very accurate calculations, keep the            |
|     reciprocal projection scheme (i.e. LREAL=.FALSE.).                      |
|                                                                             |
 -----------------------------------------------------------------------------

 LDA part: xc-table for Pade appr. of Perdew
 POSCAR found type information on POSCAR LiNbMoO 
 00/POSCAR found :  4 types and      93 ions
 POSCAR found type information on POSCAR LiNbMoO 
 08/POSCAR found :  4 types and      93 ions
 POSCAR, INCAR and KPOINTS ok, starting setup
 FFT: planning ... GRIDC
 FFT: planning ... GRID_SOFT
 FFT: planning ... GRID
 WAVECAR not read
 entering main loop
       N       E                     dE             d eps       ncg     rms          rms(c)
DAV:   1     0.974925000650E+04    0.97493E+04   -0.32527E+05  7392   0.152E+03
DAV:   2     0.829454765316E+03   -0.89198E+04   -0.84454E+04  7392   0.568E+02
DAV:   3    -0.920047371323E+03   -0.17495E+04   -0.16615E+04 12096   0.213E+02
DAV:   4    -0.101745748881E+04   -0.97410E+02   -0.96808E+02 11382   0.630E+01
DAV:   5    -0.101905708112E+04   -0.15996E+01   -0.15938E+01 12096   0.119E+01    0.903E+01
RMM:   6    -0.754799880377E+03    0.26426E+03   -0.92822E+02 10591   0.462E+01    0.295E+01
RMM:   7    -0.750631875100E+03    0.41680E+01   -0.82170E+01  9482   0.157E+01    0.179E+01
RMM:   8    -0.762039145503E+03   -0.11407E+02   -0.20090E+01  9657   0.636E+00    0.130E+01
RMM:   9    -0.782795879126E+03   -0.20757E+02   -0.14045E+01  9270   0.658E+00    0.696E+00
RMM:  10    -0.795188919942E+03   -0.12393E+02   -0.10482E+01  9432   0.460E+00    0.482E+00
RMM:  11    -0.804985501460E+03   -0.97966E+01   -0.86536E+00  9649   0.335E+00    0.350E+00
RMM:  12    -0.812790755196E+03   -0.78053E+01   -0.10180E+01  9857   0.315E+00    0.184E+00
RMM:  13    -0.813724577387E+03   -0.93382E+00   -0.19622E+00  9756   0.152E+00    0.100E+00
RMM:  14    -0.813861680055E+03   -0.13710E+00   -0.47903E-01  9751   0.741E-01    0.600E-01
RMM:  15    -0.813871793594E+03   -0.10114E-01   -0.13505E-01 10162   0.477E-01    0.419E-01
RMM:  16    -0.813868406521E+03    0.33871E-02   -0.29782E-02 10036   0.242E-01    0.231E-01
RMM:  17    -0.813867663574E+03    0.74295E-03   -0.13163E-02 10525   0.140E-01    0.132E-01
RMM:  18    -0.813867859315E+03   -0.19574E-03   -0.34774E-03 10263   0.848E-02    0.746E-02
RMM:  19    -0.813868044996E+03   -0.18568E-03   -0.14528E-03 10654   0.447E-02    0.450E-02
RMM:  20    -0.813868139730E+03   -0.94734E-04   -0.48799E-04 10259   0.299E-02    0.335E-02
RMM:  21    -0.813868187558E+03   -0.47828E-04   -0.34289E-04  9903   0.254E-02    0.221E-02
RMM:  22    -0.813868207900E+03   -0.20342E-04   -0.12636E-04 10119   0.167E-02    0.174E-02
RMM:  23    -0.813868216162E+03   -0.82624E-05   -0.60466E-05  9737   0.117E-02    0.101E-02
RMM:  24    -0.813868222631E+03   -0.64683E-05   -0.36890E-05  9453   0.100E-02    0.415E-03
RMM:  25    -0.813868225238E+03   -0.26077E-05   -0.13688E-05  8196   0.680E-03    0.265E-03
RMM:  26    -0.813868225762E+03   -0.52332E-06   -0.56205E-06  6455   0.513E-03
   1 F= -.81386823E+03 E0= -.81385787E+03  d E =-.813868E+03  mag=     0.0018
 BRION: g(F)=  0.989E+00 g(S)=  0.000E+00
 bond charge predicted
       N       E                     dE             d eps       ncg     rms          rms(c)
DAV:   1    -0.813874338458E+03   -0.61132E-02   -0.12768E+00  8778   0.207E+00    0.165E-01
RMM:   2    -0.813879277861E+03   -0.49394E-02   -0.58006E-02 10615   0.480E-01    0.785E-02
RMM:   3    -0.813880422885E+03   -0.11450E-02   -0.11103E-02 10513   0.159E-01    0.699E-02
RMM:   4    -0.813880470571E+03   -0.47686E-04   -0.12006E-03 11207   0.550E-02    0.524E-02
RMM:   5    -0.813880442572E+03    0.28000E-04   -0.21446E-04 10294   0.227E-02    0.342E-02
RMM:   6    -0.813880431785E+03    0.10787E-04   -0.16236E-04  9726   0.206E-02    0.137E-02
RMM:   7    -0.813880432207E+03   -0.42248E-06   -0.45843E-05  9226   0.992E-03    0.102E-02
RMM:   8    -0.813880430294E+03    0.19129E-05   -0.14677E-05  7912   0.753E-03    0.468E-03
RMM:   9    -0.813880431076E+03   -0.78182E-06   -0.89671E-06  6958   0.478E-03
   2 F= -.81388043E+03 E0= -.81386994E+03  d E =-.122053E-01  mag=     0.0012
 BRION: g(F)=  0.496E+00 g(S)=  0.000E+00 retain N=  1 mean eig= 2.50
 eig:   2.499
 bond charge predicted
       N       E                     dE             d eps       ncg     rms          rms(c)
DAV:   1    -0.813884705064E+03   -0.42748E-02   -0.43219E+00  8778   0.352E+00    0.278E-01
RMM:   2    -0.813896348519E+03   -0.11643E-01   -0.13200E-01  9615   0.837E-01    0.119E-01
RMM:   3    -0.813899209690E+03   -0.28612E-02   -0.29542E-02 10651   0.289E-01    0.126E-01
RMM:   4    -0.813899183334E+03    0.26356E-04   -0.31497E-03 10856   0.875E-02    0.897E-02
RMM:   5    -0.813899104447E+03    0.78887E-04   -0.56548E-04 10624   0.338E-02    0.602E-02
RMM:   6    -0.813899052462E+03    0.51985E-04   -0.62560E-04  9779   0.361E-02    0.240E-02
RMM:   7    -0.813899047377E+03    0.50847E-05   -0.10072E-04  9872   0.165E-02    0.155E-02
RMM:   8    -0.813899044897E+03    0.24799E-05   -0.34926E-05  8799   0.882E-03    0.641E-03
RMM:   9    -0.813899046792E+03   -0.18950E-05   -0.12886E-05  7317   0.595E-03    0.524E-03
RMM:  10    -0.813899046976E+03   -0.18348E-06   -0.50307E-06  5819   0.426E-03
   3 F= -.81389905E+03 E0= -.81388866E+03  d E =-.186159E-01  mag=     0.0005
 BRION: g(F)=  0.199E+00 g(S)=  0.000E+00 retain N=  1 mean eig= 3.60
 eig:   3.598
 bond charge predicted
       N       E                     dE             d eps       ncg     rms          rms(c)
DAV:   1    -0.813900410386E+03   -0.13636E-02   -0.30466E+00  8988   0.309E+00    0.241E-01
RMM:   2    -0.813910452267E+03   -0.10042E-01   -0.11308E-01 10220   0.731E-01    0.942E-02
RMM:   3    -0.813912511165E+03   -0.20589E-02   -0.20787E-02 10476   0.235E-01    0.888E-02
RMM:   4    -0.813912633951E+03   -0.12279E-03   -0.21375E-03 11112   0.735E-02    0.731E-02
RMM:   5    -0.813912574198E+03    0.59753E-04   -0.41183E-04 10359   0.289E-02    0.448E-02
RMM:   6    -0.813912559300E+03    0.14898E-04   -0.37940E-04  9741   0.286E-02    0.210E-02
RMM:   7    -0.813912554743E+03    0.45565E-05   -0.68514E-05  9642   0.139E-02    0.134E-02
RMM:   8    -0.813912552920E+03    0.18230E-05   -0.24739E-05  8456   0.744E-03    0.597E-03
RMM:   9    -0.813912554441E+03   -0.15204E-05   -0.10790E-05  7034   0.574E-03    0.460E-03
RMM:  10    -0.813912554707E+03   -0.26599E-06   -0.37122E-06  5572   0.394E-03
   4 F= -.81391255E+03 E0= -.81390200E+03  d E =-.135077E-01  mag=     0.0002
 BRION: g(F)=  0.107E+00 g(S)=  0.000E+00 retain N=  1 mean eig= 4.40
 eig:   4.401
 bond charge predicted
       N       E                     dE             d eps       ncg     rms          rms(c)
DAV:   1    -0.813915816477E+03   -0.32620E-02   -0.65643E-01  8526   0.143E+00    0.119E-01
RMM:   2    -0.813918036174E+03   -0.22197E-02   -0.25414E-02 10217   0.365E-01    0.506E-02
RMM:   3    -0.813918514482E+03   -0.47831E-03   -0.49754E-03 10539   0.113E-01    0.447E-02
RMM:   4    -0.813918536645E+03   -0.22162E-04   -0.53677E-04 10963   0.370E-02    0.359E-02
RMM:   5    -0.813918525025E+03    0.11620E-04   -0.92529E-05 10041   0.141E-02    0.249E-02
RMM:   6    -0.813918515346E+03    0.96787E-05   -0.81863E-05  9334   0.141E-02    0.869E-03
RMM:   7    -0.813918515665E+03   -0.31923E-06   -0.19055E-05  7793   0.724E-03    0.665E-03
RMM:   8    -0.813918514987E+03    0.67845E-06   -0.54145E-06  6165   0.555E-03
   5 F= -.81391851E+03 E0= -.81390803E+03  d E =-.596028E-02  mag=     0.0001
 BRION: g(F)=  0.792E-01 g(S)=  0.000E+00 retain N=  2 mean eig= 4.36
 eig:   4.355  4.355
 bond charge predicted
       N       E                     dE             d eps       ncg     rms          rms(c)
DAV:   1    -0.813903691775E+03    0.14824E-01   -0.71465E+00  8568   0.472E+00    0.375E-01
RMM:   2    -0.813927891531E+03   -0.24200E-01   -0.26973E-01 10206   0.113E+00    0.135E-01
RMM:   3    -0.813932798462E+03   -0.49069E-02   -0.49049E-02 10482   0.360E-01    0.132E-01
RMM:   4    -0.813933114273E+03   -0.31581E-03   -0.50471E-03 11085   0.112E-01    0.111E-01
RMM:   5    -0.813932981481E+03    0.13279E-03   -0.94134E-04 10523   0.430E-02    0.678E-02
RMM:   6    -0.813932939148E+03    0.42333E-04   -0.82939E-04  9801   0.409E-02    0.290E-02
RMM:   7    -0.813932934411E+03    0.47374E-05   -0.15367E-04 10186   0.203E-02    0.196E-02
RMM:   8    -0.813932930696E+03    0.37147E-05   -0.53833E-05  9232   0.108E-02    0.841E-03
RMM:   9    -0.813932934107E+03   -0.34108E-05   -0.22630E-05  8112   0.703E-03    0.690E-03
RMM:  10    -0.813932934457E+03   -0.35046E-06   -0.80518E-06  6441   0.537E-03
   6 F= -.81393293E+03 E0= -.81392238E+03  d E =-.144195E-01  mag=     0.0000
 BRION: g(F)=  0.386E-01 g(S)=  0.000E+00 retain N=  2 mean eig= 6.25
 eig:   6.246  6.246
 bond charge predicted
       N       E                     dE             d eps       ncg     rms          rms(c)
DAV:   1    -0.813930295945E+03    0.26382E-02   -0.19053E+00  8736   0.249E+00    0.200E-01
RMM:   2    -0.813937420936E+03   -0.71250E-02   -0.79202E-02 10408   0.611E-01    0.697E-02
RMM:   3    -0.813938788705E+03   -0.13678E-02   -0.13523E-02 10364   0.188E-01    0.649E-02
RMM:   4    -0.813938886514E+03   -0.97810E-04   -0.13373E-03 11029   0.592E-02    0.546E-02
RMM:   5    -0.813938862520E+03    0.23994E-04   -0.27932E-04 10268   0.229E-02    0.343E-02
RMM:   6    -0.813938852180E+03    0.10340E-04   -0.18702E-04  9556   0.198E-02    0.149E-02
RMM:   7    -0.813938851573E+03    0.60681E-06   -0.40945E-05  9278   0.104E-02    0.102E-02
RMM:   8    -0.813938850497E+03    0.10762E-05   -0.13338E-05  7481   0.572E-03    0.477E-03
RMM:   9    -0.813938851429E+03   -0.93216E-06   -0.67711E-06  6249   0.459E-03
   7 F= -.81393885E+03 E0= -.81392827E+03  d E =-.591697E-02  mag=     0.0000
 BRION: g(F)=  0.287E-01 g(S)=  0.000E+00
 BRIONS problems: POTIM should be increased
 retain N=  1 mean eig= 8.03
 eig:   8.032
 bond charge predicted
       N       E                     dE             d eps       ncg     rms          rms(c)
DAV:   1    -0.813936803341E+03    0.20472E-02   -0.13394E+00  8484   0.213E+00    0.174E-01
RMM:   2    -0.813942251388E+03   -0.54480E-02   -0.60534E-02 10576   0.536E-01    0.598E-02
RMM:   3    -0.813943332848E+03   -0.10815E-02   -0.10725E-02 10240   0.159E-01    0.542E-02
RMM:   4    -0.813943399477E+03   -0.66629E-04   -0.96962E-04 10985   0.520E-02    0.425E-02
RMM:   5    -0.813943386308E+03    0.13169E-04   -0.22398E-04 10095   0.217E-02    0.225E-02
RMM:   6    -0.813943387415E+03   -0.11069E-05   -0.91713E-05  9602   0.135E-02    0.152E-02
RMM:   7    -0.813943384244E+03    0.31707E-05   -0.23829E-05  8578   0.825E-03    0.877E-03
RMM:   8    -0.813943383390E+03    0.85473E-06   -0.97325E-06  7148   0.515E-03
   8 F= -.81394338E+03 E0= -.81393280E+03  d E =-.453196E-02  mag=     0.0000
 BRION: g(F)=  0.224E-01 g(S)=  0.000E+00 retain N=  1 mean eig= 7.13
 eig:   7.126
 bond charge predicted
       N       E                     dE             d eps       ncg     rms          rms(c)
DAV:   1    -0.813943241354E+03    0.14289E-03   -0.57001E-01  8316   0.143E+00    0.116E-01
RMM:   2    -0.813945771589E+03   -0.25302E-02   -0.28050E-02 10695   0.369E-01    0.400E-02
RMM:   3    -0.813946304606E+03   -0.53302E-03   -0.52573E-03 10148   0.110E-01    0.367E-02
RMM:   4    -0.813946338967E+03   -0.34361E-04   -0.45052E-04 10939   0.363E-02    0.300E-02
RMM:   5    -0.813946334323E+03    0.46438E-05   -0.81621E-05  9795   0.133E-02    0.204E-02
RMM:   6    -0.813946330479E+03    0.38439E-05   -0.53404E-05  9259   0.114E-02    0.850E-03
RMM:   7    -0.813946330223E+03    0.25598E-06   -0.12830E-05  7434   0.618E-03    0.590E-03
RMM:   8    -0.813946329672E+03    0.55103E-06   -0.40101E-06  5796   0.449E-03
   9 F= -.81394633E+03 E0= -.81393574E+03  d E =-.294628E-02  mag=     0.0000
 BRION: g(F)=  0.183E-01 g(S)=  0.000E+00 retain N=  2 mean eig= 6.34
 eig:   6.344  6.344
 bond charge predicted
       N       E                     dE             d eps       ncg     rms          rms(c)
DAV:   1    -0.813902256110E+03    0.44074E-01   -0.10172E+01  8232   0.595E+00    0.485E-01
RMM:   2    -0.813945367427E+03   -0.43111E-01   -0.47830E-01 10676   0.151E+00    0.164E-01
RMM:   3    -0.813953699888E+03   -0.83325E-02   -0.81935E-02 10209   0.442E-01    0.149E-01
RMM:   4    -0.813954233219E+03   -0.53333E-03   -0.74246E-03 11100   0.146E-01    0.118E-01
RMM:   5    -0.813954174685E+03    0.58534E-04   -0.14949E-03 10493   0.540E-02    0.780E-02
RMM:   6    -0.813954116087E+03    0.58598E-04   -0.76099E-04 10180   0.389E-02    0.361E-02
RMM:   7    -0.813954105288E+03    0.10799E-04   -0.17496E-04 10471   0.205E-02    0.237E-02
RMM:   8    -0.813954098876E+03    0.64117E-05   -0.68047E-05  9831   0.124E-02    0.109E-02
RMM:   9    -0.813954103106E+03   -0.42301E-05   -0.31523E-05  8836   0.849E-03    0.830E-03
RMM:  10    -0.813954103443E+03   -0.33687E-06   -0.10465E-05  7050   0.626E-03    0.492E-03
RMM:  11    -0.813954103104E+03    0.33929E-06   -0.51488E-06  6113   0.405E-03
  10 F= -.81395410E+03 E0= -.81394350E+03  d E =-.777343E-02  mag=     0.0000
 BRION: g(F)=  0.963E-02 g(S)=  0.000E+00
 BRIONS problems: POTIM should be increased
 retain N=  1 mean eig=10.42
 eig:  10.424
 bond charge predicted
       N       E                     dE             d eps       ncg     rms          rms(c)
DAV:   1    -0.813954366884E+03   -0.26344E-03   -0.23896E-01  8400   0.942E-01    0.736E-02
RMM:   2    -0.813955397332E+03   -0.10304E-02   -0.11375E-02 10561   0.247E-01    0.249E-02
RMM:   3    -0.813955604783E+03   -0.20745E-03   -0.20402E-03  9780   0.755E-02    0.246E-02
RMM:   4    -0.813955627273E+03   -0.22490E-04   -0.25503E-04 10746   0.268E-02    0.211E-02
RMM:   5    -0.813955624083E+03    0.31900E-05   -0.35243E-05  9141   0.906E-03    0.143E-02
RMM:   6    -0.813955621833E+03    0.22494E-05   -0.24393E-05  8541   0.892E-03    0.536E-03
RMM:   7    -0.813955622103E+03   -0.26992E-06   -0.77795E-06  6719   0.503E-03
  11 F= -.81395562E+03 E0= -.81394503E+03  d E =-.151900E-02  mag=     0.0000
 BRION: g(F)=  0.842E-02 g(S)=  0.000E+00
 BRIONS problems: POTIM should be increased
 retain N=  1 mean eig= 8.18
 eig:   8.182
 bond charge predicted
       N       E                     dE             d eps       ncg     rms          rms(c)
DAV:   1    -0.813952817658E+03    0.28042E-02   -0.11692E+00  8232   0.209E+00    0.163E-01
RMM:   2    -0.813957821977E+03   -0.50043E-02   -0.55261E-02 10488   0.546E-01    0.554E-02
RMM:   3    -0.813958877230E+03   -0.10553E-02   -0.10242E-02  9905   0.172E-01    0.577E-02
RMM:   4    -0.813958967488E+03   -0.90259E-04   -0.11443E-03 10946   0.570E-02    0.482E-02
RMM:   5    -0.813958950044E+03    0.17444E-04   -0.15970E-04 10162   0.186E-02    0.333E-02
RMM:   6    -0.813958938394E+03    0.11650E-04   -0.13879E-04  9514   0.194E-02    0.124E-02
RMM:   7    -0.813958938637E+03   -0.24328E-06   -0.31459E-05  9017   0.922E-03    0.973E-03
RMM:   8    -0.813958936707E+03    0.19306E-05   -0.79974E-06  7077   0.621E-03    0.447E-03
RMM:   9    -0.813958936904E+03   -0.19737E-06   -0.50170E-06  6012   0.404E-03
  12 F= -.81395894E+03 E0= -.81394836E+03  d E =-.331480E-02  mag=     0.0000
 BRION: g(F)=  0.680E-02 g(S)=  0.000E+00
 BRIONS problems: POTIM should be increased
 retain N=  1 mean eig= 8.77
 eig:   8.768
 bond charge predicted
       N       E                     dE             d eps       ncg     rms          rms(c)
DAV:   1    -0.813959138383E+03   -0.20168E-03   -0.29112E-01  8736   0.105E+00    0.789E-02
RMM:   2    -0.813960371059E+03   -0.12327E-02   -0.13541E-02 10493   0.274E-01    0.281E-02
RMM:   3    -0.813960621366E+03   -0.25031E-03   -0.24396E-03  9765   0.857E-02    0.295E-02
RMM:   4    -0.813960643504E+03   -0.22139E-04   -0.29152E-04 10767   0.293E-02    0.244E-02
RMM:   5    -0.813960639012E+03    0.44923E-05   -0.40753E-05  9381   0.101E-02    0.169E-02
RMM:   6    -0.813960636070E+03    0.29422E-05   -0.34489E-05  8839   0.104E-02    0.664E-03
RMM:   7    -0.813960636143E+03   -0.72963E-07   -0.97424E-06  6921   0.561E-03
  13 F= -.81396064E+03 E0= -.81395008E+03  d E =-.169924E-02  mag=     0.0000
 BRION: g(F)=  0.620E-02 g(S)=  0.000E+00 retain N=  2 mean eig= 5.66
 eig:   7.315  4.000
 bond charge predicted
       N       E                     dE             d eps       ncg     rms          rms(c)
DAV:   1    -0.813922237794E+03    0.38398E-01   -0.86933E+00  8316   0.572E+00    0.440E-01
RMM:   2    -0.813959392779E+03   -0.37155E-01   -0.40974E-01 10528   0.149E+00    0.152E-01
RMM:   3    -0.813967042236E+03   -0.76495E-02   -0.74424E-02  9899   0.467E-01    0.158E-01
RMM:   4    -0.813967740392E+03   -0.69816E-03   -0.88697E-03 11057   0.157E-01    0.131E-01
RMM:   5    -0.813967607939E+03    0.13245E-03   -0.11912E-03 10777   0.496E-02    0.894E-02
RMM:   6    -0.813967527342E+03    0.80597E-04   -0.99119E-04  9825   0.488E-02    0.346E-02
RMM:   7    -0.813967525707E+03    0.16358E-05   -0.21406E-04 10672   0.225E-02    0.259E-02
RMM:   8    -0.813967512652E+03    0.13055E-04   -0.56329E-05  9805   0.130E-02    0.119E-02
RMM:   9    -0.813967514216E+03   -0.15639E-05   -0.32184E-05  9025   0.860E-03    0.686E-03
RMM:  10    -0.813967515169E+03   -0.95354E-06   -0.95556E-06  7048   0.660E-03
  14 F= -.81396752E+03 E0= -.81395702E+03  d E =-.687903E-02  mag=     0.0000
 BRION: g(F)=  0.361E-02 g(S)=  0.000E+00
 BRIONS problems: POTIM should be increased
 retain N=  1 mean eig=14.10
 eig:  14.100
 bond charge predicted
       N       E                     dE             d eps       ncg     rms          rms(c)
DAV:   1    -0.813967101825E+03    0.41239E-03   -0.38239E-01  8316   0.120E+00    0.899E-02
RMM:   2    -0.813968714283E+03   -0.16125E-02   -0.17691E-02 10490   0.315E-01    0.324E-02
RMM:   3    -0.813969040848E+03   -0.32657E-03   -0.31680E-03  9889   0.988E-02    0.342E-02
RMM:   4    -0.813969070500E+03   -0.29651E-04   -0.40580E-04 10785   0.341E-02    0.277E-02
RMM:   5    -0.813969065046E+03    0.54537E-05   -0.56285E-05  9666   0.116E-02    0.191E-02
RMM:   6    -0.813969061238E+03    0.38081E-05   -0.44600E-05  8993   0.118E-02    0.727E-03
RMM:   7    -0.813969061506E+03   -0.26856E-06   -0.12704E-05  7252   0.620E-03    0.546E-03
RMM:   8    -0.813969060877E+03    0.62947E-06   -0.30816E-06  5515   0.517E-03
  15 F= -.81396906E+03 E0= -.81395857E+03  d E =-.154571E-02  mag=     0.0000
 BRION: g(F)=  0.325E-02 g(S)=  0.000E+00
 BRIONS problems: POTIM should be increased
 retain N=  1 mean eig=13.91
 eig:  13.914
 bond charge predicted
       N       E                     dE             d eps       ncg     rms          rms(c)
DAV:   1    -0.813958035394E+03    0.11026E-01   -0.28965E+00  8316   0.332E+00    0.251E-01
RMM:   2    -0.813970447119E+03   -0.12412E-01   -0.13632E-01 10508   0.869E-01    0.891E-02
RMM:   3    -0.813972953121E+03   -0.25060E-02   -0.24331E-02  9977   0.274E-01    0.929E-02
RMM:   4    -0.813973168892E+03   -0.21577E-03   -0.29156E-03 11008   0.914E-02    0.756E-02
RMM:   5    -0.813973127563E+03    0.41329E-04   -0.41218E-04 10512   0.295E-02    0.520E-02
RMM:   6    -0.813973100939E+03    0.26624E-04   -0.32610E-04  9710   0.291E-02    0.209E-02
RMM:   7    -0.813973100302E+03    0.63681E-06   -0.78426E-05 10299   0.140E-02    0.150E-02
RMM:   8    -0.813973095879E+03    0.44229E-05   -0.19711E-05  8836   0.824E-03    0.679E-03
RMM:   9    -0.813973096555E+03   -0.67535E-06   -0.11465E-05  7600   0.579E-03    0.409E-03
RMM:  10    -0.813973096875E+03   -0.31984E-06   -0.33660E-06  5559   0.429E-03
  16 F= -.81397310E+03 E0= -.81396265E+03  d E =-.403600E-02  mag=     0.0000
 BRION: g(F)=  0.255E-02 g(S)=  0.000E+00
 BRIONS problems: POTIM should be increased
 retain N=  1 mean eig=17.30
 eig:  17.304
 bond charge predicted
       N       E                     dE             d eps       ncg     rms          rms(c)
DAV:   1    -0.813970228036E+03    0.28685E-02   -0.10147E+00  8232   0.196E+00    0.147E-01
RMM:   2    -0.813974539201E+03   -0.43112E-02   -0.47279E-02 10466   0.516E-01    0.521E-02
RMM:   3    -0.813975417083E+03   -0.87788E-03   -0.85037E-03 10005   0.165E-01    0.553E-02
RMM:   4    -0.813975490807E+03   -0.73724E-04   -0.10126E-03 10912   0.542E-02    0.451E-02
RMM:   5    -0.813975476757E+03    0.14050E-04   -0.14332E-04 10143   0.180E-02    0.314E-02
RMM:   6    -0.813975466542E+03    0.10215E-04   -0.11936E-04  9447   0.185E-02    0.121E-02
RMM:   7    -0.813975466858E+03   -0.31623E-06   -0.30706E-05  9146   0.920E-03    0.919E-03
RMM:   8    -0.813975465170E+03    0.16881E-05   -0.75549E-06  6963   0.644E-03    0.424E-03
RMM:   9    -0.813975465401E+03   -0.23047E-06   -0.48458E-06  5969   0.407E-03
  17 F= -.81397547E+03 E0= -.81396502E+03  d E =-.236853E-02  mag=     0.0000
 BRION: g(F)=  0.227E-02 g(S)=  0.000E+00
 BRIONS problems: POTIM should be increased
 retain N=  1 mean eig=11.01
 eig:  11.013
 bond charge predicted
       N       E                     dE             d eps       ncg     rms          rms(c)
DAV:   1    -0.813975951531E+03   -0.48636E-03   -0.32243E-02  8820   0.353E-01    0.250E-02
RMM:   2    -0.813976087572E+03   -0.13604E-03   -0.14824E-03 10423   0.936E-02    0.894E-03
RMM:   3    -0.813976114297E+03   -0.26725E-04   -0.26320E-04  9546   0.305E-02    0.908E-03
RMM:   4    -0.813976117427E+03   -0.31292E-05   -0.36253E-05  9560   0.112E-02    0.780E-03
RMM:   5    -0.813976117049E+03    0.37717E-06   -0.51307E-06  6034   0.406E-03
  18 F= -.81397612E+03 E0= -.81396568E+03  d E =-.651649E-03  mag=     0.0000
 BRION: g(F)=  0.223E-02 g(S)=  0.000E+00 retain N=  1 mean eig= 0.93
 eig:   0.930
 bond charge predicted
       N       E                     dE             d eps       ncg     rms          rms(c)
DAV:   1    -0.813976477201E+03   -0.35977E-03   -0.18302E-02  8736   0.263E-01    0.202E-02
RMM:   2    -0.813976550611E+03   -0.73410E-04   -0.81988E-04 10358   0.695E-02    0.723E-03
RMM:   3    -0.813976565930E+03   -0.15319E-04   -0.15256E-04  9805   0.229E-02    0.676E-03
RMM:   4    -0.813976567544E+03   -0.16140E-05   -0.20033E-05  8361   0.920E-03    0.536E-03
RMM:   5    -0.813976567415E+03    0.12859E-06   -0.32065E-06  5483   0.369E-03
  19 F= -.81397657E+03 E0= -.81396613E+03  d E =-.450366E-03  mag=     0.0000
 BRION: g(F)=  0.210E-02 g(S)=  0.000E+00 retain N=  1 mean eig= 3.58
 eig:   3.579
 bond charge predicted
       N       E                     dE             d eps       ncg     rms          rms(c)
DAV:   1    -0.813977067016E+03   -0.49947E-03   -0.16644E-01  8316   0.801E-01    0.590E-02
RMM:   2    -0.813977761833E+03   -0.69482E-03   -0.76262E-03 10392   0.212E-01    0.208E-02
RMM:   3    -0.813977903827E+03   -0.14199E-03   -0.13807E-03  9927   0.694E-02    0.219E-02
RMM:   4    -0.813977917077E+03   -0.13250E-04   -0.17053E-04 10669   0.228E-02    0.179E-02
RMM:   5    -0.813977915065E+03    0.20121E-05   -0.24463E-05  8803   0.803E-03    0.124E-02
RMM:   6    -0.813977913658E+03    0.14065E-05   -0.18861E-05  8606   0.830E-03    0.510E-03
RMM:   7    -0.813977913759E+03   -0.10066E-06   -0.59359E-06  6221   0.443E-03
  20 F= -.81397791E+03 E0= -.81396748E+03  d E =-.134634E-02  mag=     0.0000
 BRION: g(F)=  0.208E-02 g(S)=  0.000E+00 retain N=  2 mean eig= 5.60
 eig:   5.598  5.598
 bond charge predicted
       N       E                     dE             d eps       ncg     rms          rms(c)
DAV:   1    -0.813967129795E+03    0.10784E-01   -0.30776E+00  8148   0.347E+00    0.255E-01
RMM:   2    -0.813980324228E+03   -0.13194E-01   -0.14450E-01 10431   0.917E-01    0.867E-02
RMM:   3    -0.813982990784E+03   -0.26666E-02   -0.25891E-02  9856   0.300E-01    0.891E-02
RMM:   4    -0.813983265373E+03   -0.27459E-03   -0.31692E-03 11048   0.978E-02    0.763E-02
RMM:   5    -0.813983228861E+03    0.36512E-04   -0.43399E-04 10455   0.306E-02    0.533E-02
RMM:   6    -0.813983201879E+03    0.26983E-04   -0.34547E-04  9633   0.306E-02    0.222E-02
RMM:   7    -0.813983201548E+03    0.33026E-06   -0.87559E-05 10550   0.149E-02    0.165E-02
RMM:   8    -0.813983196026E+03    0.55228E-05   -0.21723E-05  9112   0.884E-03    0.798E-03
RMM:   9    -0.813983196231E+03   -0.20560E-06   -0.13568E-05  8041   0.633E-03    0.396E-03
RMM:  10    -0.813983196905E+03   -0.67383E-06   -0.41224E-06  5772   0.461E-03
  21 F= -.81398320E+03 E0= -.81397278E+03  d E =-.528315E-02  mag=     0.0000
 BRION: g(F)=  0.146E-02 g(S)=  0.000E+00
 BRIONS problems: POTIM should be increased
 retain N=  1 mean eig=18.18
 eig:  18.176
 bond charge predicted
       N       E                     dE             d eps       ncg     rms          rms(c)
DAV:   1    -0.813978325346E+03    0.48709E-02   -0.15672E+00  8148   0.248E+00    0.181E-01
RMM:   2    -0.813985093581E+03   -0.67682E-02   -0.74052E-02 10437   0.656E-01    0.626E-02
RMM:   3    -0.813986443437E+03   -0.13499E-02   -0.13073E-02  9840   0.214E-01    0.658E-02
RMM:   4    -0.813986576148E+03   -0.13271E-03   -0.16322E-03 10961   0.705E-02    0.555E-02
RMM:   5    -0.813986556516E+03    0.19632E-04   -0.22021E-04 10258   0.225E-02    0.391E-02
RMM:   6    -0.813986540721E+03    0.15795E-04   -0.18490E-04  9492   0.235E-02    0.156E-02
RMM:   7    -0.813986541005E+03   -0.28455E-06   -0.48464E-05 10026   0.114E-02    0.119E-02
RMM:   8    -0.813986538084E+03    0.29214E-05   -0.11890E-05  8004   0.736E-03    0.558E-03
RMM:   9    -0.813986538241E+03   -0.15690E-06   -0.72718E-06  6740   0.503E-03
  22 F= -.81398654E+03 E0= -.81397612E+03  d E =-.334134E-02  mag=     0.0000
 BRION: g(F)=  0.134E-02 g(S)=  0.000E+00
 BRIONS problems: POTIM should be increased
 retain N=  1 mean eig=18.52
 eig:  18.521
 bond charge predicted
       N       E                     dE             d eps       ncg     rms          rms(c)
DAV:   1    -0.813986862524E+03   -0.32444E-03   -0.43653E-02  8484   0.429E-01    0.309E-02
RMM:   2    -0.813987072074E+03   -0.20955E-03   -0.22861E-03 10564   0.114E-01    0.108E-02
RMM:   3    -0.813987113660E+03   -0.41586E-04   -0.39661E-04  9539   0.374E-02    0.110E-02
RMM:   4    -0.813987118788E+03   -0.51279E-05   -0.57444E-05 10211   0.139E-02    0.956E-03
RMM:   5    -0.813987118353E+03    0.43461E-06   -0.77147E-06  6792   0.481E-03
  23 F= -.81398712E+03 E0= -.81397670E+03  d E =-.580112E-03  mag=     0.0000
 BRION: g(F)=  0.135E-02 g(S)=  0.000E+00 retain N=  1 mean eig= 1.45
 eig:   1.448
 bond charge predicted
       N       E                     dE             d eps       ncg     rms          rms(c)
DAV:   1    -0.813987028016E+03    0.90772E-04   -0.13683E-03  9114   0.751E-02    0.532E-03
RMM:   2    -0.813987034890E+03   -0.68739E-05   -0.69501E-05 10331   0.196E-02    0.321E-03
RMM:   3    -0.813987035839E+03   -0.94888E-06   -0.11000E-05  7222   0.673E-03    0.269E-03
RMM:   4    -0.813987035824E+03    0.14516E-07   -0.16664E-06  4776   0.476E-03
  24 F= -.81398704E+03 E0= -.81397662E+03  d E =0.825287E-04  mag=     0.0000
 BRION: g(F)=  0.141E-02 g(S)=  0.000E+00 retain N=  2 mean eig= 3.34
 eig:   3.965  2.709
 bond charge predicted
       N       E                     dE             d eps       ncg     rms          rms(c)
DAV:   1    -0.813987056781E+03   -0.20942E-04   -0.63465E-03  8400   0.149E-01    0.112E-02
RMM:   2    -0.813987078706E+03   -0.21925E-04   -0.23597E-04 10111   0.400E-02    0.453E-03
RMM:   3    -0.813987083341E+03   -0.46344E-05   -0.46596E-05  9126   0.126E-02    0.465E-03
RMM:   4    -0.813987083493E+03   -0.15240E-06   -0.61091E-06  6187   0.649E-03
  25 F= -.81398708E+03 E0= -.81397666E+03  d E =-.476688E-04  mag=     0.0000
 BRION: g(F)=  0.144E-02 g(S)=  0.000E+00 retain N=  3 mean eig= 3.71
 eig:   4.077  5.503  1.547
 bond charge predicted
       N       E                     dE             d eps       ncg     rms          rms(c)
DAV:   1    -0.813987131173E+03   -0.47833E-04   -0.56684E-04  8568   0.417E-02    0.362E-03
RMM:   2    -0.813987132708E+03   -0.15343E-05   -0.18422E-05  8861   0.112E-02    0.212E-03
RMM:   3    -0.813987133087E+03   -0.37938E-06   -0.45999E-06  5884   0.446E-03
  26 F= -.81398713E+03 E0= -.81397671E+03  d E =-.495940E-04  mag=     0.0000
 BRION: g(F)=  0.138E-02 g(S)=  0.000E+00 retain N=  4 mean eig= 2.64
 eig:   2.977  4.645  0.555  2.369
 bond charge predicted
       N       E                     dE             d eps       ncg     rms          rms(c)
DAV:   1    -0.813987120500E+03    0.12208E-04   -0.31950E-01  8064   0.984E-01    0.731E-02
RMM:   2    -0.813988058781E+03   -0.93828E-03   -0.10095E-02  9188   0.267E-01    0.289E-02
RMM:   3    -0.813988289093E+03   -0.23031E-03   -0.24427E-03  9752   0.938E-02    0.326E-02
RMM:   4    -0.813988301970E+03   -0.12876E-04   -0.30988E-04 10131   0.309E-02    0.259E-02
RMM:   5    -0.813988295769E+03    0.62005E-05   -0.46962E-05  9411   0.101E-02    0.151E-02
RMM:   6    -0.813988295262E+03    0.50756E-06   -0.42966E-05  8957   0.103E-02    0.880E-03
RMM:   7    -0.813988294333E+03    0.92900E-06   -0.80648E-06  6505   0.627E-03
  27 F= -.81398829E+03 E0= -.81397787E+03  d E =-.116125E-02  mag=     0.0000
 BRION: g(F)=  0.159E-02 g(S)=  0.000E+00 retain N=  2 mean eig= 3.81
 eig:   1.902  5.723
 bond charge predicted
       N       E                     dE             d eps       ncg     rms          rms(c)
DAV:   1    -0.813988492480E+03   -0.19722E-03   -0.16440E-01  8316   0.749E-01    0.559E-02
RMM:   2    -0.813989078412E+03   -0.58593E-03   -0.63323E-03  9806   0.201E-01    0.196E-02
RMM:   3    -0.813989199959E+03   -0.12155E-03   -0.12619E-03  9813   0.687E-02    0.215E-02
RMM:   4    -0.813989211457E+03   -0.11498E-04   -0.16497E-04 10373   0.222E-02    0.181E-02
RMM:   5    -0.813989209417E+03    0.20403E-05   -0.23330E-05  8506   0.752E-03    0.124E-02
RMM:   6    -0.813989208246E+03    0.11712E-05   -0.22468E-05  8640   0.836E-03    0.566E-03
RMM:   7    -0.813989208015E+03    0.23105E-06   -0.50043E-06  5909   0.464E-03
  28 F= -.81398921E+03 E0= -.81397878E+03  d E =-.913682E-03  mag=     0.0000
 BRION: g(F)=  0.164E-02 g(S)=  0.000E+00
 BRIONS problems: POTIM should be increased
 retain N=  1 mean eig= 8.87
 eig:   8.875
 bond charge predicted
       N       E                     dE             d eps       ncg     rms          rms(c)
DAV:   1    -0.813987272959E+03    0.19353E-02   -0.25425E-01  8232   0.883E-01    0.647E-02
RMM:   2    -0.813988025935E+03   -0.75298E-03   -0.81080E-03  9196   0.239E-01    0.269E-02
RMM:   3    -0.813988216240E+03   -0.19031E-03   -0.19969E-03  9791   0.855E-02    0.310E-02
RMM:   4    -0.813988221744E+03   -0.55035E-05   -0.23652E-04 10092   0.273E-02    0.232E-02
RMM:   5    -0.813988216983E+03    0.47605E-05   -0.36323E-05  9150   0.914E-03    0.145E-02
RMM:   6    -0.813988215582E+03    0.14010E-05   -0.37067E-05  8869   0.982E-03    0.810E-03
RMM:   7    -0.813988214747E+03    0.83529E-06   -0.65936E-06  6233   0.581E-03
  29 F= -.81398821E+03 E0= -.81397780E+03  d E =0.993268E-03  mag=     0.0000
 BRION: g(F)=  0.137E-02 g(S)=  0.000E+00 retain N=  1 mean eig= 3.01
 eig:   3.010
 bond charge predicted
       N       E                     dE             d eps       ncg     rms          rms(c)
DAV:   1    -0.813988445627E+03   -0.23004E-03   -0.14676E-02  8484   0.274E-01    0.203E-02
RMM:   2    -0.813988537381E+03   -0.91754E-04   -0.10291E-03 10710   0.723E-02    0.731E-03
RMM:   3    -0.813988558163E+03   -0.20782E-04   -0.19036E-04  9485   0.247E-02    0.618E-03
RMM:   4    -0.813988560774E+03   -0.26107E-05   -0.27001E-05  9182   0.961E-03    0.540E-03
RMM:   5    -0.813988560584E+03    0.19008E-06   -0.28833E-06  5277   0.373E-03
  30 F= -.81398856E+03 E0= -.81397814E+03  d E =-.345837E-03  mag=     0.0000
 BRION: g(F)=  0.130E-02 g(S)=  0.000E+00 retain N=  2 mean eig= 2.85
 eig:   2.853  2.853
 bond charge predicted
       N       E                     dE             d eps       ncg     rms          rms(c)
DAV:   1    -0.813988748357E+03   -0.18758E-03   -0.18387E-02  8232   0.315E-01    0.248E-02
RMM:   2    -0.813988872005E+03   -0.12365E-03   -0.14121E-03 10730   0.841E-02    0.894E-03
RMM:   3    -0.813988901694E+03   -0.29690E-04   -0.27090E-04  9639   0.293E-02    0.733E-03
RMM:   4    -0.813988905522E+03   -0.38277E-05   -0.38958E-05  9850   0.116E-02    0.647E-03
RMM:   5    -0.813988905301E+03    0.22106E-06   -0.43401E-06  5767   0.403E-03
  31 F= -.81398891E+03 E0= -.81397849E+03  d E =-.344717E-03  mag=     0.0000
 BRION: g(F)=  0.123E-02 g(S)=  0.000E+00 retain N=  3 mean eig= 5.07
 eig:   2.228  6.484  6.484
 bond charge predicted
       N       E                     dE             d eps       ncg     rms          rms(c)
DAV:   1    -0.813988727751E+03    0.17777E-03   -0.18955E-01  8400   0.962E-01    0.730E-02
RMM:   2    -0.813989820112E+03   -0.10924E-02   -0.12255E-02 10741   0.255E-01    0.249E-02
RMM:   3    -0.813990057529E+03   -0.23742E-03   -0.21932E-03  9537   0.848E-02    0.212E-02
RMM:   4    -0.813990088659E+03   -0.31130E-04   -0.31424E-04 10810   0.320E-02    0.184E-02
RMM:   5    -0.813990088061E+03    0.59776E-06   -0.38381E-05  9506   0.106E-02    0.137E-02
RMM:   6    -0.813990086338E+03    0.17224E-05   -0.19130E-05  8969   0.932E-03    0.635E-03
RMM:   7    -0.813990086746E+03   -0.40804E-06   -0.86889E-06  7361   0.493E-03
  32 F= -.81399009E+03 E0= -.81397967E+03  d E =-.118145E-02  mag=     0.0000
 BRION: g(F)=  0.120E-02 g(S)=  0.000E+00 retain N=  3 mean eig= 5.83
 eig:   1.753  7.872  7.872
 bond charge predicted
       N       E                     dE             d eps       ncg     rms          rms(c)
DAV:   1    -0.813990298157E+03   -0.21182E-03   -0.49003E-02  8442   0.495E-01    0.389E-02
RMM:   2    -0.813990589896E+03   -0.29174E-03   -0.32889E-03 10737   0.132E-01    0.125E-02
RMM:   3    -0.813990654760E+03   -0.64864E-04   -0.59648E-04  9474   0.442E-02    0.105E-02
RMM:   4    -0.813990663695E+03   -0.89352E-05   -0.88340E-05 10584   0.170E-02    0.931E-03
RMM:   5    -0.813990663618E+03    0.76507E-07   -0.10528E-05  7378   0.569E-03    0.716E-03
RMM:   6    -0.813990663005E+03    0.61339E-06   -0.49367E-06  6326   0.580E-03
  33 F= -.81399066E+03 E0= -.81398024E+03  d E =-.576258E-03  mag=     0.0000
 BRION: g(F)=  0.116E-02 g(S)=  0.000E+00 retain N=  3 mean eig= 4.88
 eig:   6.525  6.525  1.578
 bond charge predicted
       N       E                     dE             d eps       ncg     rms          rms(c)
DAV:   1    -0.813990933092E+03   -0.26947E-03   -0.39372E-02  8400   0.417E-01    0.326E-02
RMM:   2    -0.813991124846E+03   -0.19175E-03   -0.21621E-03 10657   0.111E-01    0.107E-02
RMM:   3    -0.813991164450E+03   -0.39604E-04   -0.37449E-04  9407   0.361E-02    0.935E-03
RMM:   4    -0.813991169839E+03   -0.53890E-05   -0.56069E-05 10317   0.139E-02    0.813E-03
RMM:   5    -0.813991169628E+03    0.21089E-06   -0.73861E-06  6764   0.476E-03
  34 F= -.81399117E+03 E0= -.81398075E+03  d E =-.506624E-03  mag=     0.0000
 BRION: g(F)=  0.108E-02 g(S)=  0.000E+00 retain N=  3 mean eig= 4.93
 eig:   4.002  4.002  6.799
 bond charge predicted
       N       E                     dE             d eps       ncg     rms          rms(c)
DAV:   1    -0.813989632131E+03    0.15377E-02   -0.65240E-01  8232   0.163E+00    0.122E-01
RMM:   2    -0.813992525313E+03   -0.28932E-02   -0.31926E-02 10561   0.436E-01    0.412E-02
RMM:   3    -0.813993078238E+03   -0.55292E-03   -0.53506E-03  9464   0.139E-01    0.403E-02
RMM:   4    -0.813993145977E+03   -0.67739E-04   -0.76590E-04 10852   0.497E-02    0.349E-02
RMM:   5    -0.813993139090E+03    0.68865E-05   -0.99301E-05  9986   0.160E-02    0.247E-02
RMM:   6    -0.813993133278E+03    0.58127E-05   -0.72208E-05  9427   0.156E-02    0.104E-02
RMM:   7    -0.813993133627E+03   -0.34988E-06   -0.22424E-05  8614   0.767E-03    0.740E-03
RMM:   8    -0.813993132556E+03    0.10719E-05   -0.60221E-06  6641   0.710E-03    0.381E-03
RMM:   9    -0.813993132618E+03   -0.62348E-07   -0.37065E-06  5648   0.376E-03
  35 F= -.81399313E+03 E0= -.81398270E+03  d E =-.196299E-02  mag=     0.0000
 BRION: g(F)=  0.101E-02 g(S)=  0.000E+00 retain N=  1 mean eig= 7.13
 eig:   7.133
 bond charge predicted
       N       E                     dE             d eps       ncg     rms          rms(c)
DAV:   1    -0.813993305679E+03   -0.17312E-03   -0.12036E-02  8316   0.234E-01    0.169E-02
RMM:   2    -0.813993370353E+03   -0.64674E-04   -0.70928E-04 10653   0.631E-02    0.690E-03
RMM:   3    -0.813993383508E+03   -0.13156E-04   -0.12272E-04  9664   0.207E-02    0.642E-03
RMM:   4    -0.813993384998E+03   -0.14893E-05   -0.19287E-05  8391   0.852E-03    0.525E-03
RMM:   5    -0.813993384763E+03    0.23493E-06   -0.24394E-06  5214   0.373E-03
  36 F= -.81399338E+03 E0= -.81398296E+03  d E =-.252145E-03  mag=     0.0000
 BRION: g(F)=  0.981E-03 g(S)=  0.000E+00 retain N=  1 mean eig= 0.68
 eig:   0.680
 bond charge predicted
       N       E                     dE             d eps       ncg     rms          rms(c)
DAV:   1    -0.813993544863E+03   -0.15987E-03   -0.80499E-03  8988   0.183E-01    0.140E-02
RMM:   2    -0.813993581672E+03   -0.36808E-04   -0.41137E-04 10549   0.488E-02    0.511E-03
RMM:   3    -0.813993589329E+03   -0.76577E-05   -0.72525E-05  9369   0.163E-02    0.490E-03
RMM:   4    -0.813993590145E+03   -0.81545E-06   -0.10861E-05  7083   0.716E-03    0.378E-03
RMM:   5    -0.813993590047E+03    0.97294E-07   -0.15401E-06  4864   0.359E-03
  37 F= -.81399359E+03 E0= -.81398316E+03  d E =-.205285E-03  mag=     0.0000
 BRION: g(F)=  0.949E-03 g(S)=  0.000E+00 retain N=  2 mean eig= 3.83
 eig:   6.525  1.128
 bond charge predicted
       N       E                     dE             d eps       ncg     rms          rms(c)
DAV:   1    -0.813993394290E+03    0.19585E-03   -0.21398E-01  8316   0.954E-01    0.704E-02
RMM:   2    -0.813994401351E+03   -0.10071E-02   -0.11090E-02 10572   0.254E-01    0.236E-02
RMM:   3    -0.813994601590E+03   -0.20024E-03   -0.19117E-03  9468   0.828E-02    0.222E-02
RMM:   4    -0.813994626878E+03   -0.25288E-04   -0.26976E-04 10747   0.297E-02    0.193E-02
RMM:   5    -0.813994625353E+03    0.15252E-05   -0.34878E-05  9388   0.985E-03    0.139E-02
RMM:   6    -0.813994623497E+03    0.18552E-05   -0.21815E-05  9003   0.926E-03    0.625E-03
RMM:   7    -0.813994623760E+03   -0.26207E-06   -0.84396E-06  7085   0.484E-03
  38 F= -.81399462E+03 E0= -.81398419E+03  d E =-.103371E-02  mag=     0.0000
 BRION: g(F)=  0.948E-03 g(S)=  0.000E+00 retain N=  3 mean eig= 3.01
 eig:   0.653  4.183  4.183
 bond charge predicted
       N       E                     dE             d eps       ncg     rms          rms(c)
DAV:   1    -0.813993893562E+03    0.72994E-03   -0.33660E-01  8274   0.121E+00    0.903E-02
RMM:   2    -0.813995511968E+03   -0.16184E-02   -0.17844E-02 10604   0.321E-01    0.294E-02
RMM:   3    -0.813995833565E+03   -0.32160E-03   -0.30488E-03  9436   0.104E-01    0.275E-02
RMM:   4    -0.813995874935E+03   -0.41370E-04   -0.43499E-04 10777   0.376E-02    0.240E-02
RMM:   5    -0.813995872897E+03    0.20381E-05   -0.55889E-05  9699   0.123E-02    0.175E-02
RMM:   6    -0.813995869812E+03    0.30853E-05   -0.34072E-05  9154   0.114E-02    0.761E-03
RMM:   7    -0.813995870379E+03   -0.56752E-06   -0.13260E-05  7915   0.594E-03    0.579E-03
RMM:   8    -0.813995869700E+03    0.67917E-06   -0.36003E-06  5758   0.602E-03
  39 F= -.81399587E+03 E0= -.81398543E+03  d E =-.124594E-02  mag=     0.0000
 BRION: g(F)=  0.928E-03 g(S)=  0.000E+00 retain N=  3 mean eig= 4.40
 eig:   4.951  4.951  3.289
 bond charge predicted
       N       E                     dE             d eps       ncg     rms          rms(c)
DAV:   1    -0.813996042408E+03   -0.17203E-03   -0.35537E-02  8400   0.394E-01    0.296E-02
RMM:   2    -0.813996216722E+03   -0.17431E-03   -0.19108E-03 10623   0.105E-01    0.961E-03
RMM:   3    -0.813996250818E+03   -0.34096E-04   -0.32206E-04  9266   0.340E-02    0.926E-03
RMM:   4    -0.813996255509E+03   -0.46910E-05   -0.50256E-05 10159   0.134E-02    0.810E-03
RMM:   5    -0.813996255333E+03    0.17574E-06   -0.65312E-06  6574   0.451E-03
  40 F= -.81399626E+03 E0= -.81398582E+03  d E =-.385633E-03  mag=     0.0000
 BRION: g(F)=  0.883E-03 g(S)=  0.000E+00
 BRIONS problems: POTIM should be increased
 retain N=  1 mean eig= 8.74
 eig:   8.740
 bond charge predicted
       N       E                     dE             d eps       ncg     rms          rms(c)
DAV:   1    -0.813995419496E+03    0.83601E-03   -0.35996E-01  8400   0.123E+00    0.925E-02
RMM:   2    -0.813997079227E+03   -0.16597E-02   -0.18353E-02 10582   0.329E-01    0.311E-02
RMM:   3    -0.813997398268E+03   -0.31904E-03   -0.30714E-03  9396   0.106E-01    0.288E-02
RMM:   4    -0.813997440958E+03   -0.42689E-04   -0.46047E-04 10774   0.384E-02    0.246E-02
RMM:   5    -0.813997438466E+03    0.24921E-05   -0.59303E-05  9806   0.128E-02    0.172E-02
RMM:   6    -0.813997436765E+03    0.17005E-05   -0.33927E-05  9281   0.107E-02    0.909E-03
RMM:   7    -0.813997436384E+03    0.38082E-06   -0.12487E-05  7922   0.586E-03    0.568E-03
RMM:   8    -0.813997435781E+03    0.60295E-06   -0.38249E-06  5821   0.590E-03
  41 F= -.81399744E+03 E0= -.81398699E+03  d E =-.118045E-02  mag=     0.0000
 BRION: g(F)=  0.875E-03 g(S)=  0.000E+00 retain N=  2 mean eig= 7.44
 eig:   7.438  7.438
 bond charge predicted
       N       E                     dE             d eps       ncg     rms          rms(c)
DAV:   1    -0.813996306987E+03    0.11294E-02   -0.39699E-01  8232   0.131E+00    0.974E-02
RMM:   2    -0.813998211829E+03   -0.19048E-02   -0.20930E-02 10600   0.349E-01    0.320E-02
RMM:   3    -0.813998582120E+03   -0.37029E-03   -0.35148E-03  9343   0.113E-01    0.307E-02
RMM:   4    -0.813998631616E+03   -0.49496E-04   -0.52528E-04 10806   0.410E-02    0.270E-02
RMM:   5    -0.813998628695E+03    0.29212E-05   -0.64816E-05  9755   0.133E-02    0.199E-02
RMM:   6    -0.813998624565E+03    0.41294E-05   -0.42606E-05  9204   0.128E-02    0.850E-03
RMM:   7    -0.813998625158E+03   -0.59305E-06   -0.16180E-05  8165   0.654E-03    0.646E-03
RMM:   8    -0.813998624296E+03    0.86195E-06   -0.43153E-06  6084   0.651E-03
  42 F= -.81399862E+03 E0= -.81398818E+03  d E =-.118852E-02  mag=     0.0000
 BRION: g(F)=  0.858E-03 g(S)=  0.000E+00
 BRIONS problems: POTIM should be increased
 retain N=  1 mean eig=11.46
 eig:  11.460
 bond charge predicted
       N       E                     dE             d eps       ncg     rms          rms(c)
DAV:   1    -0.813998671162E+03   -0.46004E-04   -0.60555E-02  8400   0.524E-01    0.393E-02
RMM:   2    -0.813998985721E+03   -0.31456E-03   -0.34565E-03 10652   0.140E-01    0.127E-02
RMM:   3    -0.813999048780E+03   -0.63059E-04   -0.58787E-04  9218   0.456E-02    0.117E-02
RMM:   4    -0.813999057434E+03   -0.86541E-05   -0.89930E-05 10609   0.173E-02    0.101E-02
RMM:   5    -0.813999057141E+03    0.29258E-06   -0.11521E-05  7636   0.601E-03    0.719E-03
RMM:   6    -0.813999056801E+03    0.33990E-06   -0.56141E-06  6596   0.538E-03
  43 F= -.81399906E+03 E0= -.81398861E+03  d E =-.432505E-03  mag=     0.0000
 BRION: g(F)=  0.872E-03 g(S)=  0.000E+00 retain N=  1 mean eig= 1.76
 eig:   1.758
 bond charge predicted
       N       E                     dE             d eps       ncg     rms          rms(c)
DAV:   1    -0.813998628367E+03    0.42877E-03   -0.24805E-02  8400   0.327E-01    0.227E-02
RMM:   2    -0.813998748514E+03   -0.12015E-03   -0.12976E-03 10595   0.869E-02    0.791E-03
RMM:   3    -0.813998770586E+03   -0.22072E-04   -0.21094E-04  9010   0.281E-02    0.799E-03
RMM:   4    -0.813998773426E+03   -0.28397E-05   -0.32039E-05  9681   0.110E-02    0.686E-03
RMM:   5    -0.813998772925E+03    0.50152E-06   -0.41119E-06  5795   0.401E-03
  44 F= -.81399877E+03 E0= -.81398832E+03  d E =0.283877E-03  mag=     0.0000
 BRION: g(F)=  0.884E-03 g(S)=  0.000E+00 retain N=  1 mean eig= 1.66
 eig:   1.657
 bond charge predicted
       N       E                     dE             d eps       ncg     rms          rms(c)
DAV:   1    -0.813998758392E+03    0.15034E-04   -0.89635E-02  8400   0.625E-01    0.453E-02
RMM:   2    -0.813999194553E+03   -0.43616E-03   -0.47563E-03 10598   0.166E-01    0.152E-02
RMM:   3    -0.813999277961E+03   -0.83408E-04   -0.78301E-04  9157   0.536E-02    0.156E-02
RMM:   4    -0.813999288559E+03   -0.10598E-04   -0.11869E-04 10677   0.199E-02    0.136E-02
RMM:   5    -0.813999287401E+03    0.11579E-05   -0.13709E-05  8044   0.653E-03    0.993E-03
RMM:   6    -0.813999285994E+03    0.14064E-05   -0.10592E-05  7908   0.714E-03    0.357E-03
RMM:   7    -0.813999286275E+03   -0.28059E-06   -0.44645E-06  5912   0.407E-03
  45 F= -.81399929E+03 E0= -.81398883E+03  d E =-.513350E-03  mag=     0.0000
 BRION: g(F)=  0.854E-03 g(S)=  0.000E+00 retain N=  1 mean eig= 7.93
 eig:   7.927
 bond charge predicted
       N       E                     dE             d eps       ncg     rms          rms(c)
DAV:   1    -0.813998827744E+03    0.45825E-03   -0.19963E-01  8232   0.932E-01    0.704E-02
RMM:   2    -0.813999795789E+03   -0.96805E-03   -0.10690E-02 10607   0.249E-01    0.228E-02
RMM:   3    -0.813999986398E+03   -0.19061E-03   -0.17975E-03  9199   0.804E-02    0.214E-02
RMM:   4    -0.814000012116E+03   -0.25717E-04   -0.27005E-04 10735   0.298E-02    0.188E-02
RMM:   5    -0.814000010665E+03    0.14502E-05   -0.32617E-05  9279   0.964E-03    0.138E-02
RMM:   6    -0.814000008590E+03    0.20755E-05   -0.21420E-05  8963   0.947E-03    0.567E-03
RMM:   7    -0.814000009057E+03   -0.46699E-06   -0.84065E-06  7089   0.476E-03
  46 F= -.81400001E+03 E0= -.81398955E+03  d E =-.722782E-03  mag=     0.0000
 BRION: g(F)=  0.857E-03 g(S)=  0.000E+00 retain N=  1 mean eig= 4.73
 eig:   4.734
 bond charge predicted
       N       E                     dE             d eps       ncg     rms          rms(c)
DAV:   1    -0.813999512065E+03    0.49652E-03   -0.34506E-02  8400   0.379E-01    0.267E-02
RMM:   2    -0.813999668219E+03   -0.15615E-03   -0.17012E-03 10510   0.100E-01    0.950E-03
RMM:   3    -0.813999696684E+03   -0.28465E-04   -0.27762E-04  8984   0.325E-02    0.933E-03
RMM:   4    -0.813999700445E+03   -0.37614E-05   -0.42265E-05 10047   0.124E-02    0.809E-03
RMM:   5    -0.813999700012E+03    0.43371E-06   -0.53213E-06  6292   0.420E-03
  47 F= -.81399970E+03 E0= -.81398925E+03  d E =0.309045E-03  mag=     0.0000
 BRION: g(F)=  0.869E-03 g(S)=  0.000E+00 retain N=  1 mean eig= 5.30
 eig:   5.300
 bond charge predicted
       N       E                     dE             d eps       ncg     rms          rms(c)
DAV:   1    -0.813999610691E+03    0.89754E-04   -0.99547E-02  8400   0.659E-01    0.481E-02
RMM:   2    -0.814000097047E+03   -0.48636E-03   -0.53055E-03 10603   0.175E-01    0.158E-02
RMM:   3    -0.814000190370E+03   -0.93323E-04   -0.87304E-04  9102   0.565E-02    0.163E-02
RMM:   4    -0.814000202237E+03   -0.11867E-04   -0.13238E-04 10693   0.210E-02    0.143E-02
RMM:   5    -0.814000200921E+03    0.13157E-05   -0.15023E-05  8257   0.683E-03    0.105E-02
RMM:   6    -0.814000199275E+03    0.16460E-05   -0.12620E-05  8312   0.769E-03    0.320E-03
RMM:   7    -0.814000199643E+03   -0.36742E-06   -0.47007E-06  5942   0.401E-03
  48 F= -.81400020E+03 E0= -.81398974E+03  d E =-.499631E-03  mag=     0.0000
 BRION: g(F)=  0.846E-03 g(S)=  0.000E+00
 BRIONS problems: POTIM should be increased
 retain N=  1 mean eig= 9.08
 eig:   9.080
 bond charge predicted
       N       E                     dE             d eps       ncg     rms          rms(c)
DAV:   1    -0.813999875796E+03    0.32348E-03   -0.15260E-01  8232   0.816E-01    0.619E-02
RMM:   2    -0.814000618077E+03   -0.74228E-03   -0.82052E-03 10620   0.218E-01    0.201E-02
RMM:   3    -0.814000763342E+03   -0.14527E-03   -0.13687E-03  9151   0.699E-02    0.186E-02
RMM:   4    -0.814000783241E+03   -0.19899E-04   -0.20939E-04 10701   0.264E-02    0.163E-02
RMM:   5    -0.814000782224E+03    0.10173E-05   -0.25186E-05  8974   0.852E-03    0.120E-02
RMM:   6    -0.814000780699E+03    0.15255E-05   -0.15732E-05  8678   0.827E-03    0.514E-03
RMM:   7    -0.814000781051E+03   -0.35227E-06   -0.67970E-06  6765   0.437E-03
  49 F= -.81400078E+03 E0= -.81399032E+03  d E =-.581408E-03  mag=     0.0000
 BRION: g(F)=  0.855E-03 g(S)=  0.000E+00 retain N=  2 mean eig= 7.56
 eig:   7.561  7.561
 bond charge predicted
       N       E                     dE             d eps       ncg     rms          rms(c)
DAV:   1    -0.814000650947E+03    0.12975E-03   -0.99565E-02  8232   0.659E-01    0.505E-02
RMM:   2    -0.814001134101E+03   -0.48315E-03   -0.53502E-03 10604   0.176E-01    0.162E-02
RMM:   3    -0.814001229558E+03   -0.95457E-04   -0.89929E-04  9189   0.569E-02    0.149E-02
RMM:   4    -0.814001242747E+03   -0.13189E-04   -0.13790E-04 10685   0.213E-02    0.130E-02
RMM:   5    -0.814001242165E+03    0.58211E-06   -0.16721E-05  8327   0.701E-03    0.962E-03
RMM:   6    -0.814001241200E+03    0.96461E-06   -0.98327E-06  7841   0.684E-03
  50 F= -.81400124E+03 E0= -.81399078E+03  d E =-.460149E-03  mag=     0.0000
 BRION: g(F)=  0.849E-03 g(S)=  0.000E+00 retain N=  2 mean eig= 6.66
 eig:   6.657  6.657
 bond charge predicted
       N       E                     dE             d eps       ncg     rms          rms(c)
DAV:   1    -0.814000549854E+03    0.69231E-03   -0.56130E-02  8400   0.493E-01    0.348E-02
RMM:   2    -0.814000822876E+03   -0.27302E-03   -0.29617E-03 10606   0.131E-01    0.120E-02
RMM:   3    -0.814000873814E+03   -0.50938E-04   -0.48239E-04  8999   0.420E-02    0.122E-02
RMM:   4    -0.814000880409E+03   -0.65946E-05   -0.72688E-05 10510   0.160E-02    0.108E-02
RMM:   5    -0.814000879686E+03    0.72266E-06   -0.85432E-06  7109   0.521E-03
  51 F= -.81400088E+03 E0= -.81399042E+03  d E =0.361514E-03  mag=     0.0000
 BRION: g(F)=  0.846E-03 g(S)=  0.000E+00 retain N=  1 mean eig= 0.81
 eig:   0.807
 bond charge predicted
       N       E                     dE             d eps       ncg     rms          rms(c)
DAV:   1    -0.814000930958E+03   -0.50549E-04   -0.23906E-02  8400   0.333E-01    0.240E-02
RMM:   2    -0.814001060845E+03   -0.12989E-03   -0.14031E-03 10634   0.887E-02    0.809E-03
RMM:   3    -0.814001086631E+03   -0.25786E-04   -0.23168E-04  8949   0.292E-02    0.949E-03
RMM:   4    -0.814001089134E+03   -0.25029E-05   -0.35798E-05  9877   0.119E-02    0.737E-03
RMM:   5    -0.814001088797E+03    0.33637E-06   -0.39569E-06  5786   0.379E-03
  52 F= -.81400109E+03 E0= -.81399063E+03  d E =-.209111E-03  mag=     0.0000
 BRION: g(F)=  0.818E-03 g(S)=  0.000E+00 retain N=  2 mean eig= 2.89
 eig:   3.513  2.272
 bond charge predicted
       N       E                     dE             d eps       ncg     rms          rms(c)
DAV:   1    -0.814000847631E+03    0.24150E-03   -0.93414E-03  8652   0.194E-01    0.137E-02
RMM:   2    -0.814000889604E+03   -0.41973E-04   -0.44875E-04 10384   0.516E-02    0.479E-03
RMM:   3    -0.814000897281E+03   -0.76777E-05   -0.75011E-05  9095   0.171E-02    0.510E-03
RMM:   4    -0.814000898019E+03   -0.73770E-06   -0.10015E-05  6963   0.721E-03    0.421E-03
RMM:   5    -0.814000897882E+03    0.13722E-06   -0.14454E-06  4810   0.327E-03
  53 F= -.81400090E+03 E0= -.81399044E+03  d E =0.190916E-03  mag=     0.0000
 BRION: g(F)=  0.840E-03 g(S)=  0.000E+00 retain N=  3 mean eig= 3.20
 eig:   3.211  4.667  1.718
 bond charge predicted
       N       E                     dE             d eps       ncg     rms          rms(c)
DAV:   1    -0.814000458667E+03    0.43935E-03   -0.25497E-02  8316   0.302E-01    0.220E-02
RMM:   2    -0.814000552392E+03   -0.93725E-04   -0.10213E-03 10015   0.803E-02    0.768E-03
RMM:   3    -0.814000570730E+03   -0.18337E-04   -0.19090E-04  9343   0.270E-02    0.749E-03
RMM:   4    -0.814000572856E+03   -0.21263E-05   -0.26397E-05  8925   0.101E-02    0.623E-03
RMM:   5    -0.814000572504E+03    0.35149E-06   -0.42925E-06  5840   0.394E-03
  54 F= -.81400057E+03 E0= -.81399011E+03  d E =0.325377E-03  mag=     0.0000
 BRION: g(F)=  0.788E-03 g(S)=  0.000E+00 retain N=  4 mean eig= 4.86
 eig:   6.187  6.187  5.565  1.513
 bond charge predicted
       N       E                     dE             d eps       ncg     rms          rms(c)
DAV:   1    -0.813997935901E+03    0.26370E-02   -0.31671E-01  8148   0.108E+00    0.785E-02
RMM:   2    -0.813999142565E+03   -0.12067E-02   -0.13090E-02 10101   0.286E-01    0.272E-02
RMM:   3    -0.813999378489E+03   -0.23592E-03   -0.23800E-03  9591   0.945E-02    0.294E-02
RMM:   4    -0.813999401354E+03   -0.22865E-04   -0.31827E-04 10545   0.314E-02    0.246E-02
RMM:   5    -0.813999396806E+03    0.45477E-05   -0.43392E-05  9460   0.106E-02    0.167E-02
RMM:   6    -0.813999394126E+03    0.26806E-05   -0.40344E-05  9103   0.113E-02    0.704E-03
RMM:   7    -0.813999394009E+03    0.11616E-06   -0.96280E-06  6813   0.558E-03
  55 F= -.81399939E+03 E0= -.81398894E+03  d E =0.117850E-02  mag=     0.0000
 BRION: g(F)=  0.733E-03 g(S)=  0.000E+00 retain N=  4 mean eig= 5.22
 eig:   6.296  6.296  6.256  2.017
 reached required accuracy - stopping structural energy minimisation

MPICH Slingshot Network Summary: 176 network timeouts

