 running  384 mpi-ranks, on   16 nodes
 each image running on   48 cores
 distrk:  each k-point on   24 cores,    2 groups
 distr:  one band on    6 cores,    4 groups
 vasp.6.5.1 10Mar25 (build Apr 25 2025 15:31:43) complex                        
  
 POSCAR found type information on POSCAR PdC O 
 01/POSCAR found :  3 types and      39 ions
 scaLAPACK will be used
 LDA part: xc-table for (Slater+PW92), standard interpolation
 00/POSCAR found :  3 types and      39 ions
 09/POSCAR found :  3 types and      39 ions
 Jacobian:    18.3422329801906     
 00/POSCAR found :  3 types and      39 ions
 09/POSCAR found :  3 types and      39 ions
 POSCAR, INCAR and KPOINTS ok, starting setup
 FFT: planning ... GRIDC
 FFT: planning ... GRID_SOFT
 FFT: planning ... GRID
 WAVECAR not read
 entering main loop
       N       E                     dE             d eps       ncg     rms          rms(c)
DAV:   1     0.210846798592E+04    0.21085E+04   -0.15224E+05 10952   0.116E+03
DAV:   2    -0.909764180492E+02   -0.21994E+04   -0.20708E+04 11860   0.293E+02
DAV:   3    -0.209854762935E+03   -0.11888E+03   -0.10757E+03 12360   0.618E+01
DAV:   4    -0.213907862138E+03   -0.40531E+01   -0.39657E+01 12648   0.114E+01
DAV:   5    -0.214036508760E+03   -0.12865E+00   -0.12838E+00 13032   0.207E+00    0.412E+01
DAV:   6    -0.207052522825E+03    0.69840E+01   -0.47550E+01 11908   0.228E+01    0.277E+01
DAV:   7    -0.221432179877E+03   -0.14380E+02   -0.24980E+01 13052   0.380E+01    0.371E+01
DAV:   8    -0.211833131499E+03    0.95990E+01   -0.30083E+01 12616   0.334E+01    0.234E+01
DAV:   9    -0.209220033886E+03    0.26131E+01   -0.14693E+01 14024   0.205E+01    0.257E+01
DAV:  10    -0.203237575182E+03    0.59825E+01   -0.13662E+01 11292   0.153E+01    0.627E+00
DAV:  11    -0.204223236580E+03   -0.98566E+00   -0.51267E+00 11516   0.117E+01    0.127E+01
DAV:  12    -0.202943349458E+03    0.12799E+01   -0.20762E+00 11360   0.818E+00    0.444E+00
DAV:  13    -0.202905372663E+03    0.37977E-01   -0.83909E-01 11260   0.461E+00    0.448E+00
DAV:  14    -0.202844579573E+03    0.60793E-01   -0.40489E-01 11892   0.316E+00    0.254E+00
DAV:  15    -0.202796446720E+03    0.48133E-01   -0.16860E-01 11144   0.200E+00    0.164E+00
DAV:  16    -0.202774022194E+03    0.22425E-01   -0.56503E-02 11632   0.113E+00    0.101E+00
DAV:  17    -0.202766746980E+03    0.72752E-02   -0.27703E-02 11296   0.781E-01    0.626E-01
DAV:  18    -0.202764829321E+03    0.19177E-02   -0.11931E-02 11460   0.534E-01    0.420E-01
DAV:  19    -0.202763797211E+03    0.10321E-02   -0.36635E-03 11364   0.320E-01    0.278E-01
DAV:  20    -0.202763578737E+03    0.21847E-03   -0.17360E-03 11860   0.194E-01    0.179E-01
DAV:  21    -0.202763617666E+03   -0.38929E-04   -0.17222E-03 11344   0.195E-01    0.128E-01
DAV:  22    -0.202763687939E+03   -0.70274E-04   -0.57133E-04 11484   0.114E-01    0.875E-02
DAV:  23    -0.202763746879E+03   -0.58939E-04   -0.27331E-04 11328   0.822E-02    0.542E-02
DAV:  24    -0.202763918512E+03   -0.17163E-03   -0.23564E-04 11124   0.684E-02    0.664E-02
DAV:  25    -0.202764010872E+03   -0.92360E-04   -0.11788E-04 11520   0.515E-02    0.568E-02
DAV:  26    -0.202764201199E+03   -0.19033E-03   -0.82865E-05  9632   0.419E-02    0.369E-02
DAV:  27    -0.202764332509E+03   -0.13131E-03   -0.44843E-05  8768   0.317E-02    0.173E-02
DAV:  28    -0.202764442304E+03   -0.10980E-03   -0.20531E-05  7292   0.178E-02    0.145E-02
DAV:  29    -0.202764487264E+03   -0.44960E-04   -0.90417E-06  7020   0.135E-02    0.895E-03
DAV:  30    -0.202764511598E+03   -0.24334E-04   -0.37471E-06  6676   0.610E-03    0.635E-03
DAV:  31    -0.202764526582E+03   -0.14984E-04   -0.21643E-06  6872   0.485E-03    0.363E-03
DAV:  32    -0.202764535479E+03   -0.88963E-05   -0.16300E-06  6612   0.372E-03
   1 F= -.20276454E+03 E0= -.20020931E+03  d E =-.202765E+03
quench:  g(F)=  0.000E+00 g(S)=  0.000E+00 dE (1.order)= 0.000E+00
 bond charge predicted
       N       E                     dE             d eps       ncg     rms          rms(c)
DAV:   1    -0.202766730274E+03   -0.22037E-02   -0.22554E-02 11064   0.285E-01    0.240E-02
DAV:   2    -0.202766775728E+03   -0.45454E-04   -0.41847E-04 11440   0.481E-02    0.371E-02
DAV:   3    -0.202766773368E+03    0.23598E-05   -0.49619E-05  7040   0.299E-02    0.276E-02
DAV:   4    -0.202766771635E+03    0.17338E-05   -0.33238E-05  6432   0.271E-02
   2 F= -.20276677E+03 E0= -.20021182E+03  d E =-.223616E-02
quench:  g(F)=  0.000E+00 g(S)=  0.000E+00 dE (1.order)= 0.000E+00
 bond charge predicted
       N       E                     dE             d eps       ncg     rms          rms(c)
DAV:   1    -0.202771017078E+03   -0.42437E-02   -0.89503E-02 10952   0.568E-01    0.551E-02
DAV:   2    -0.202771189838E+03   -0.17276E-03   -0.16321E-03 11204   0.980E-02    0.654E-02
DAV:   3    -0.202771206729E+03   -0.16892E-04   -0.24013E-04 11776   0.768E-02    0.765E-02
DAV:   4    -0.202771182341E+03    0.24388E-04   -0.17712E-04  8596   0.610E-02    0.608E-02
DAV:   5    -0.202771157225E+03    0.25116E-04   -0.61590E-05  6996   0.366E-02    0.242E-02
DAV:   6    -0.202771157181E+03    0.44343E-07   -0.30701E-05  6572   0.290E-02
   3 F= -.20277116E+03 E0= -.20021652E+03  d E =-.438555E-02
quench:  g(F)=  0.000E+00 g(S)=  0.000E+00 dE (1.order)= 0.000E+00
 bond charge predicted
       N       E                     dE             d eps       ncg     rms          rms(c)
DAV:   1    -0.202777273195E+03   -0.61160E-02   -0.19913E-01 10944   0.848E-01    0.746E-02
DAV:   2    -0.202777712760E+03   -0.43956E-03   -0.38057E-03 11112   0.155E-01    0.136E-01
DAV:   3    -0.202777640057E+03    0.72703E-04   -0.55575E-04 11716   0.101E-01    0.813E-02
DAV:   4    -0.202777640115E+03   -0.57604E-07   -0.34828E-04 11820   0.865E-02    0.808E-02
DAV:   5    -0.202777593534E+03    0.46580E-04   -0.10860E-04  9340   0.547E-02    0.468E-02
DAV:   6    -0.202777588298E+03    0.52362E-05   -0.43355E-05  6804   0.363E-02
   4 F= -.20277759E+03 E0= -.20022387E+03  d E =-.643112E-02
quench:  g(F)=  0.000E+00 g(S)=  0.000E+00 dE (1.order)= 0.000E+00
 bond charge predicted
       N       E                     dE             d eps       ncg     rms          rms(c)
DAV:   1    -0.202785347533E+03   -0.77540E-02   -0.34804E-01 10944   0.112E+00    0.101E-01
DAV:   2    -0.202786080368E+03   -0.73283E-03   -0.65456E-03 11128   0.197E-01    0.159E-01
DAV:   3    -0.202786020233E+03    0.60135E-04   -0.94062E-04 11868   0.136E-01    0.119E-01
DAV:   4    -0.202785994854E+03    0.25379E-04   -0.64485E-04 11848   0.116E-01    0.107E-01
DAV:   5    -0.202785900097E+03    0.94757E-04   -0.19060E-04 11400   0.704E-02    0.407E-02
DAV:   6    -0.202785920339E+03   -0.20241E-04   -0.98529E-05 11000   0.486E-02    0.574E-02
DAV:   7    -0.202785898704E+03    0.21634E-04   -0.80689E-05  9052   0.459E-02    0.286E-02
DAV:   8    -0.202785892434E+03    0.62707E-05   -0.24870E-05  6308   0.262E-02
   5 F= -.20278589E+03 E0= -.20023327E+03  d E =-.830414E-02
quench:  g(F)=  0.000E+00 g(S)=  0.000E+00 dE (1.order)= 0.000E+00
 bond charge predicted
       N       E                     dE             d eps       ncg     rms          rms(c)
DAV:   1    -0.202795048957E+03   -0.91503E-02   -0.53277E-01 10944   0.139E+00    0.120E-01
DAV:   2    -0.202796128527E+03   -0.10796E-02   -0.10018E-02 11124   0.235E-01    0.186E-01
DAV:   3    -0.202796062744E+03    0.65783E-04   -0.12676E-03 11876   0.149E-01    0.134E-01
DAV:   4    -0.202796044648E+03    0.18096E-04   -0.84090E-04 11724   0.137E-01    0.124E-01
DAV:   5    -0.202795948359E+03    0.96289E-04   -0.31624E-04 11692   0.965E-02    0.875E-02
DAV:   6    -0.202795914371E+03    0.33988E-04   -0.13114E-04 10976   0.623E-02    0.546E-02
DAV:   7    -0.202795913603E+03    0.76749E-06   -0.12370E-04 11012   0.551E-02    0.458E-02
DAV:   8    -0.202795894094E+03    0.19510E-04   -0.53907E-05  8832   0.397E-02    0.131E-02
DAV:   9    -0.202795893474E+03    0.61959E-06   -0.97299E-06  5832   0.148E-02
   6 F= -.20279589E+03 E0= -.20024462E+03  d E =-.100010E-01
quench:  g(F)=  0.000E+00 g(S)=  0.000E+00 dE (1.order)= 0.000E+00
 bond charge predicted
       N       E                     dE             d eps       ncg     rms          rms(c)
DAV:   1    -0.202806131433E+03   -0.10237E-01   -0.74865E-01 10944   0.164E+00    0.141E-01
DAV:   2    -0.202807581730E+03   -0.14503E-02   -0.13932E-02 11112   0.273E-01    0.198E-01
DAV:   3    -0.202807582332E+03   -0.60237E-06   -0.16501E-03 11900   0.170E-01    0.167E-01
DAV:   4    -0.202807525114E+03    0.57218E-04   -0.12582E-03 11716   0.164E-01    0.146E-01
DAV:   5    -0.202807387988E+03    0.13713E-03   -0.42964E-04 11772   0.110E-01    0.999E-02
DAV:   6    -0.202807352802E+03    0.35186E-04   -0.18400E-04 11436   0.727E-02    0.662E-02
DAV:   7    -0.202807344059E+03    0.87433E-05   -0.16930E-04 11228   0.652E-02    0.504E-02
DAV:   8    -0.202807320277E+03    0.23782E-04   -0.66814E-05  9740   0.444E-02    0.144E-02
DAV:   9    -0.202807319657E+03    0.62054E-06   -0.11416E-05  5888   0.161E-02
   7 F= -.20280732E+03 E0= -.20025759E+03  d E =-.114262E-01
quench:  g(F)=  0.000E+00 g(S)=  0.000E+00 dE (1.order)= 0.000E+00
 bond charge predicted
       N       E                     dE             d eps       ncg     rms          rms(c)
DAV:   1    -0.202818341400E+03   -0.11021E-01   -0.98724E-01 10944   0.189E+00    0.162E-01
DAV:   2    -0.202820215484E+03   -0.18741E-02   -0.18256E-02 11088   0.311E-01    0.216E-01
DAV:   3    -0.202820272004E+03   -0.56520E-04   -0.21249E-03 11868   0.193E-01    0.196E-01
DAV:   4    -0.202820174326E+03    0.97678E-04   -0.16979E-03 11660   0.188E-01    0.167E-01
DAV:   5    -0.202819996556E+03    0.17777E-03   -0.55724E-04 11704   0.126E-01    0.114E-01
DAV:   6    -0.202819947852E+03    0.48704E-04   -0.24164E-04 11588   0.832E-02    0.747E-02
DAV:   7    -0.202819937967E+03    0.98846E-05   -0.21943E-04 11240   0.742E-02    0.575E-02
DAV:   8    -0.202819906925E+03    0.31042E-04   -0.86828E-05 10644   0.504E-02    0.162E-02
DAV:   9    -0.202819906167E+03    0.75795E-06   -0.13992E-05  5972   0.180E-02
   8 F= -.20281991E+03 E0= -.20027191E+03  d E =-.125865E-01
quench:  g(F)=  0.000E+00 g(S)=  0.000E+00 dE (1.order)= 0.000E+00
 bond charge predicted
       N       E                     dE             d eps       ncg     rms          rms(c)
DAV:   1    -0.202831323528E+03   -0.11417E-01   -0.12456E+00 10944   0.212E+00    0.181E-01
DAV:   2    -0.202833636539E+03   -0.23130E-02   -0.22865E-02 11084   0.348E-01    0.228E-01
DAV:   3    -0.202833770203E+03   -0.13366E-03   -0.25688E-03 11872   0.215E-01    0.222E-01
DAV:   4    -0.202833633507E+03    0.13670E-03   -0.21884E-03 11596   0.211E-01    0.189E-01
DAV:   5    -0.202833398931E+03    0.23458E-03   -0.68734E-04 11636   0.139E-01    0.123E-01
DAV:   6    -0.202833345084E+03    0.53847E-04   -0.29887E-04 11576   0.920E-02    0.832E-02
DAV:   7    -0.202833331733E+03    0.13351E-04   -0.27168E-04 11216   0.832E-02    0.647E-02
DAV:   8    -0.202833292024E+03    0.39709E-04   -0.10804E-04 10836   0.562E-02    0.180E-02
DAV:   9    -0.202833291120E+03    0.90401E-06   -0.17306E-05  6016   0.200E-02
   9 F= -.20283329E+03 E0= -.20028717E+03  d E =-.133850E-01
quench:  g(F)=  0.000E+00 g(S)=  0.000E+00 dE (1.order)= 0.000E+00
 bond charge predicted
       N       E                     dE             d eps       ncg     rms          rms(c)
DAV:   1    -0.202844869999E+03   -0.11578E-01   -0.15058E+00 10944   0.233E+00    0.200E-01
DAV:   2    -0.202847637410E+03   -0.27674E-02   -0.27608E-02 11096   0.383E-01    0.240E-01
DAV:   3    -0.202847789149E+03   -0.15174E-03   -0.29202E-03 11872   0.232E-01    0.236E-01
DAV:   4    -0.202847703770E+03    0.85379E-04   -0.26990E-03 11648   0.231E-01    0.220E-01
DAV:   5    -0.202847372323E+03    0.33145E-03   -0.87600E-04 11628   0.155E-01    0.131E-01
DAV:   6    -0.202847319270E+03    0.53053E-04   -0.36343E-04 11544   0.101E-01    0.931E-02
DAV:   7    -0.202847298405E+03    0.20865E-04   -0.32494E-04 11244   0.918E-02    0.711E-02
DAV:   8    -0.202847249931E+03    0.48474E-04   -0.12978E-04 11024   0.616E-02    0.199E-02
DAV:   9    -0.202847248804E+03    0.11276E-05   -0.20936E-05  6156   0.220E-02
  10 F= -.20284725E+03 E0= -.20030314E+03  d E =-.139577E-01
quench:  g(F)=  0.000E+00 g(S)=  0.000E+00 dE (1.order)= 0.000E+00
 bond charge predicted
       N       E                     dE             d eps       ncg     rms          rms(c)
DAV:   1    -0.202858904715E+03   -0.11655E-01   -0.17772E+00 10944   0.253E+00    0.216E-01
DAV:   2    -0.202862106460E+03   -0.32017E-02   -0.32405E-02 11092   0.417E-01    0.249E-01
DAV:   3    -0.202862154817E+03   -0.48357E-04   -0.29484E-03 11800   0.241E-01    0.217E-01
DAV:   4    -0.202862333449E+03   -0.17863E-03   -0.30042E-03 11716   0.240E-01    0.267E-01
DAV:   5    -0.202861797918E+03    0.53553E-03   -0.11782E-03 11644   0.172E-01    0.126E-01
DAV:   6    -0.202861784021E+03    0.13897E-04   -0.43983E-04 11736   0.110E-01    0.109E-01
DAV:   7    -0.202861742407E+03    0.41614E-04   -0.38186E-04 11472   0.101E-01    0.773E-02
DAV:   8    -0.202861685547E+03    0.56860E-04   -0.15007E-04 11240   0.660E-02    0.221E-02
DAV:   9    -0.202861684018E+03    0.15294E-05   -0.24723E-05  6352   0.238E-02
  11 F= -.20286168E+03 E0= -.20031966E+03  d E =-.144352E-01
quench:  g(F)=  0.000E+00 g(S)=  0.000E+00 dE (1.order)= 0.000E+00
 bond charge predicted
       N       E                     dE             d eps       ncg     rms          rms(c)
DAV:   1    -0.202873601882E+03   -0.11916E-01   -0.20348E+00 10944   0.272E+00    0.233E-01
DAV:   2    -0.202877270858E+03   -0.36690E-02   -0.37253E-02 11096   0.449E-01    0.267E-01
DAV:   3    -0.202877156513E+03    0.11435E-03   -0.29905E-03 11760   0.250E-01    0.187E-01
DAV:   4    -0.202877750498E+03   -0.59398E-03   -0.33381E-03 11804   0.251E-01    0.329E-01
DAV:   5    -0.202876905439E+03    0.84506E-03   -0.17147E-03 11772   0.197E-01    0.126E-01
DAV:   6    -0.202876923172E+03   -0.17733E-04   -0.52960E-04 11804   0.120E-01    0.125E-01
DAV:   7    -0.202876858467E+03    0.64705E-04   -0.44516E-04 11636   0.109E-01    0.836E-02
DAV:   8    -0.202876792592E+03    0.65875E-04   -0.16907E-04 11360   0.699E-02    0.242E-02
DAV:   9    -0.202876790841E+03    0.17508E-05   -0.28100E-05  6632   0.251E-02
  12 F= -.20287679E+03 E0= -.20033696E+03  d E =-.151068E-01
quench:  g(F)=  0.000E+00 g(S)=  0.000E+00 dE (1.order)= 0.000E+00
 bond charge predicted
       N       E                     dE             d eps       ncg     rms          rms(c)
DAV:   1    -0.202889410505E+03   -0.12618E-01   -0.21723E+00 10944   0.279E+00    0.239E-01
DAV:   2    -0.202893249877E+03   -0.38394E-02   -0.38886E-02 11196   0.469E-01    0.283E-01
DAV:   3    -0.202892905580E+03    0.34430E-03   -0.27944E-03 11544   0.250E-01    0.143E-01
DAV:   4    -0.202893297469E+03   -0.39189E-03   -0.16485E-03 11604   0.197E-01    0.258E-01
DAV:   5    -0.202892852748E+03    0.44472E-03   -0.16827E-03 11744   0.185E-01    0.147E-01
DAV:   6    -0.202892834859E+03    0.17889E-04   -0.79002E-04 11524   0.132E-01    0.132E-01
DAV:   7    -0.202892744344E+03    0.90515E-04   -0.47902E-04 11696   0.108E-01    0.841E-02
DAV:   8    -0.202892681508E+03    0.62835E-04   -0.16210E-04 11316   0.660E-02    0.282E-02
DAV:   9    -0.202892678839E+03    0.26696E-05   -0.32277E-05  6908   0.267E-02
  13 F= -.20289268E+03 E0= -.20035486E+03  d E =-.158880E-01
quench:  g(F)=  0.000E+00 g(S)=  0.000E+00 dE (1.order)= 0.000E+00
 bond charge predicted
       N       E                     dE             d eps       ncg     rms          rms(c)
DAV:   1    -0.202895499656E+03   -0.28181E-02   -0.10142E+00 10944   0.170E+00    0.315E-01
DAV:   2    -0.202897066997E+03   -0.15673E-02   -0.22763E-02 11252   0.316E-01    0.242E-01
DAV:   3    -0.202899223968E+03   -0.21570E-02   -0.75124E-03 12040   0.401E-01    0.530E-01
DAV:   4    -0.202897094497E+03    0.21295E-02   -0.75496E-03 11952   0.382E-01    0.241E-01
DAV:   5    -0.202896639937E+03    0.45456E-03   -0.15269E-03 11712   0.220E-01    0.151E-01
DAV:   6    -0.202896524345E+03    0.11559E-03   -0.73619E-04 12012   0.144E-01    0.109E-01
DAV:   7    -0.202896441749E+03    0.82596E-04   -0.32751E-04 11840   0.101E-01    0.693E-02
DAV:   8    -0.202896394412E+03    0.47337E-04   -0.10420E-04 10736   0.565E-02    0.186E-02
DAV:   9    -0.202896398175E+03   -0.37633E-05   -0.20689E-05  6496   0.217E-02
  14 F= -.20289640E+03 E0= -.20036028E+03  d E =-.371934E-02
quench:  g(F)=  0.000E+00 g(S)=  0.000E+00 dE (1.order)= 0.000E+00
 bond charge predicted
       N       E                     dE             d eps       ncg     rms          rms(c)
DAV:   1    -0.202900422139E+03   -0.40277E-02   -0.54432E-02 10944   0.333E-01    0.950E-02
DAV:   2    -0.202900539175E+03   -0.11704E-03   -0.14016E-03 11380   0.820E-02    0.805E-02
DAV:   3    -0.202900724307E+03   -0.18513E-03   -0.75860E-04 11992   0.127E-01    0.162E-01
DAV:   4    -0.202900540669E+03    0.18364E-03   -0.66651E-04 11872   0.114E-01    0.778E-02
DAV:   5    -0.202900485599E+03    0.55069E-04   -0.14528E-04 10788   0.680E-02    0.356E-02
DAV:   6    -0.202900481707E+03    0.38922E-05   -0.54171E-05  8300   0.389E-02
  15 F= -.20290048E+03 E0= -.20036411E+03  d E =-.408353E-02
quench:  g(F)=  0.000E+00 g(S)=  0.000E+00 dE (1.order)= 0.000E+00
 bond charge predicted
       N       E                     dE             d eps       ncg     rms          rms(c)
DAV:   1    -0.202904334846E+03   -0.38492E-02   -0.14575E-01 10944   0.580E-01    0.151E-01
DAV:   2    -0.202904626668E+03   -0.29182E-03   -0.36672E-03 11400   0.138E-01    0.135E-01
DAV:   3    -0.202904821529E+03   -0.19486E-03   -0.12049E-03 11992   0.187E-01    0.194E-01
DAV:   4    -0.202904838404E+03   -0.16875E-04   -0.16361E-03 12124   0.183E-01    0.210E-01
DAV:   5    -0.202904463342E+03    0.37506E-03   -0.94404E-04 12156   0.134E-01    0.707E-02
DAV:   6    -0.202904430525E+03    0.32817E-04   -0.20637E-04 11224   0.761E-02    0.512E-02
DAV:   7    -0.202904410037E+03    0.20488E-04   -0.69066E-05  8912   0.436E-02    0.284E-02
DAV:   8    -0.202904402002E+03    0.80354E-05   -0.18982E-05  6484   0.248E-02
  16 F= -.20290440E+03 E0= -.20036814E+03  d E =-.392029E-02
quench:  g(F)=  0.000E+00 g(S)=  0.000E+00 dE (1.order)= 0.000E+00
 bond charge predicted
       N       E                     dE             d eps       ncg     rms          rms(c)
DAV:   1    -0.202906876080E+03   -0.24660E-02   -0.36070E-02 10944   0.364E-01    0.342E-02
DAV:   2    -0.202906954152E+03   -0.78073E-04   -0.71223E-04 11208   0.672E-02    0.529E-02
DAV:   3    -0.202906951905E+03    0.22471E-05   -0.11222E-04 10376   0.480E-02    0.449E-02
DAV:   4    -0.202906941644E+03    0.10262E-04   -0.70535E-05  6568   0.379E-02    0.287E-02
DAV:   5    -0.202906938439E+03    0.32044E-05   -0.18697E-05  6128   0.231E-02
  17 F= -.20290694E+03 E0= -.20037085E+03  d E =-.253644E-02
quench:  g(F)=  0.000E+00 g(S)=  0.000E+00 dE (1.order)= 0.000E+00
 bond charge predicted
       N       E                     dE             d eps       ncg     rms          rms(c)
DAV:   1    -0.202910370065E+03   -0.34284E-02   -0.65410E-02 10944   0.491E-01    0.487E-02
DAV:   2    -0.202910518177E+03   -0.14811E-03   -0.12474E-03 11240   0.910E-02    0.802E-02
DAV:   3    -0.202910481714E+03    0.36463E-04   -0.14893E-04 11592   0.619E-02    0.377E-02
DAV:   4    -0.202910508790E+03   -0.27075E-04   -0.10756E-04  7348   0.489E-02    0.638E-02
DAV:   5    -0.202910481537E+03    0.27252E-04   -0.11794E-04  6756   0.472E-02    0.367E-02
DAV:   6    -0.202910474357E+03    0.71803E-05   -0.29200E-05  6676   0.289E-02
  18 F= -.20291047E+03 E0= -.20037494E+03  d E =-.353592E-02
quench:  g(F)=  0.000E+00 g(S)=  0.000E+00 dE (1.order)= 0.000E+00
 bond charge predicted
       N       E                     dE             d eps       ncg     rms          rms(c)
DAV:   1    -0.202914863493E+03   -0.43820E-02   -0.10516E-01 10944   0.625E-01    0.611E-02
DAV:   2    -0.202915074494E+03   -0.21100E-03   -0.20254E-03 11284   0.110E-01    0.801E-02
DAV:   3    -0.202915058012E+03    0.16481E-04   -0.24626E-04 11608   0.754E-02    0.557E-02
DAV:   4    -0.202915092849E+03   -0.34836E-04   -0.24030E-04  8312   0.683E-02    0.843E-02
DAV:   5    -0.202915033686E+03    0.59163E-04   -0.11150E-04  7180   0.510E-02    0.256E-02
DAV:   6    -0.202915037685E+03   -0.39989E-05   -0.34219E-05  7072   0.307E-02
  19 F= -.20291504E+03 E0= -.20038023E+03  d E =-.456333E-02
quench:  g(F)=  0.000E+00 g(S)=  0.000E+00 dE (1.order)= 0.000E+00
 bond charge predicted
       N       E                     dE             d eps       ncg     rms          rms(c)
DAV:   1    -0.202920338820E+03   -0.53051E-02   -0.15303E-01 10944   0.754E-01    0.750E-02
DAV:   2    -0.202920665604E+03   -0.32678E-03   -0.29711E-03 11280   0.135E-01    0.102E-01
DAV:   3    -0.202920641334E+03    0.24270E-04   -0.40373E-04 11556   0.104E-01    0.818E-02
DAV:   4    -0.202920654230E+03   -0.12896E-04   -0.29804E-04 10604   0.790E-02    0.914E-02
DAV:   5    -0.202920596602E+03    0.57629E-04   -0.18131E-04  8312   0.597E-02    0.381E-02
DAV:   6    -0.202920592667E+03    0.39341E-05   -0.67696E-05  8584   0.437E-02
  20 F= -.20292059E+03 E0= -.20038611E+03  d E =-.555498E-02
quench:  g(F)=  0.000E+00 g(S)=  0.000E+00 dE (1.order)= 0.000E+00
 bond charge predicted
       N       E                     dE             d eps       ncg     rms          rms(c)
DAV:   1    -0.202926778193E+03   -0.61816E-02   -0.19944E-01 10944   0.858E-01    0.867E-02
DAV:   2    -0.202927179765E+03   -0.40157E-03   -0.38774E-03 11244   0.153E-01    0.115E-01
DAV:   3    -0.202927136176E+03    0.43589E-04   -0.48182E-04 11656   0.105E-01    0.750E-02
DAV:   4    -0.202927224664E+03   -0.88488E-04   -0.48746E-04 11136   0.960E-02    0.125E-01
DAV:   5    -0.202927094000E+03    0.13066E-03   -0.24876E-04  9740   0.749E-02    0.375E-02
DAV:   6    -0.202927109135E+03   -0.15136E-04   -0.78187E-05  9536   0.464E-02    0.519E-02
DAV:   7    -0.202927091012E+03    0.18124E-04   -0.58373E-05  7520   0.419E-02    0.279E-02
DAV:   8    -0.202927084690E+03    0.63215E-05   -0.19348E-05  6176   0.237E-02
  21 F= -.20292708E+03 E0= -.20039366E+03  d E =-.649202E-02
quench:  g(F)=  0.000E+00 g(S)=  0.000E+00 dE (1.order)= 0.000E+00
 bond charge predicted
       N       E                     dE             d eps       ncg     rms          rms(c)
DAV:   1    -0.202933872733E+03   -0.67817E-02   -0.24878E-01 10944   0.956E-01    0.970E-02
DAV:   2    -0.202934354817E+03   -0.48208E-03   -0.49694E-03 11300   0.167E-01    0.114E-01
DAV:   3    -0.202934291987E+03    0.62829E-04   -0.42048E-04 11504   0.101E-01    0.507E-02
DAV:   4    -0.202934299036E+03   -0.70488E-05   -0.13321E-04 11308   0.596E-02    0.635E-02
DAV:   5    -0.202934304814E+03   -0.57775E-05   -0.16488E-04  7792   0.583E-02    0.673E-02
DAV:   6    -0.202934288986E+03    0.15828E-04   -0.14986E-04  8724   0.570E-02    0.495E-02
DAV:   7    -0.202934271946E+03    0.17040E-04   -0.55190E-05  7192   0.385E-02    0.244E-02
DAV:   8    -0.202934267094E+03    0.48523E-05   -0.15885E-05  5984   0.212E-02
  22 F= -.20293427E+03 E0= -.20040165E+03  d E =-.718240E-02
quench:  g(F)=  0.000E+00 g(S)=  0.000E+00 dE (1.order)= 0.000E+00
 bond charge predicted
       N       E                     dE             d eps       ncg     rms          rms(c)
DAV:   1    -0.202940667019E+03   -0.63951E-02   -0.21048E-01 10944   0.867E-01    0.110E-01
DAV:   2    -0.202941082327E+03   -0.41531E-03   -0.46207E-03 11264   0.161E-01    0.126E-01
DAV:   3    -0.202941166950E+03   -0.84623E-04   -0.82846E-04 11792   0.135E-01    0.147E-01
DAV:   4    -0.202941045712E+03    0.12124E-03   -0.73848E-04 11728   0.121E-01    0.942E-02
DAV:   5    -0.202940985871E+03    0.59841E-04   -0.20608E-04 11100   0.759E-02    0.550E-02
DAV:   6    -0.202940974543E+03    0.11328E-04   -0.11978E-04 10864   0.594E-02    0.435E-02
DAV:   7    -0.202940958185E+03    0.16358E-04   -0.48102E-05  7904   0.383E-02    0.197E-02
DAV:   8    -0.202940955834E+03    0.23512E-05   -0.14500E-05  6160   0.204E-02
  23 F= -.20294096E+03 E0= -.20040933E+03  d E =-.668874E-02
quench:  g(F)=  0.000E+00 g(S)=  0.000E+00 dE (1.order)= 0.000E+00
 bond charge predicted
       N       E                     dE             d eps       ncg     rms          rms(c)
DAV:   1    -0.202945439301E+03   -0.44811E-02   -0.11655E-01 10944   0.611E-01    0.917E-02
DAV:   2    -0.202945662308E+03   -0.22301E-03   -0.25974E-03 11344   0.111E-01    0.842E-02
DAV:   3    -0.202945687341E+03   -0.25032E-04   -0.41799E-04 11616   0.102E-01    0.963E-02
DAV:   4    -0.202945725684E+03   -0.38344E-04   -0.51280E-04 11320   0.986E-02    0.115E-01
DAV:   5    -0.202945632450E+03    0.93234E-04   -0.31684E-04 10460   0.854E-02    0.596E-02
DAV:   6    -0.202945604551E+03    0.27899E-04   -0.87308E-05  9488   0.520E-02    0.321E-02
DAV:   7    -0.202945601453E+03    0.30973E-05   -0.33900E-05  6896   0.311E-02
  24 F= -.20294560E+03 E0= -.20041435E+03  d E =-.464562E-02
quench:  g(F)=  0.000E+00 g(S)=  0.000E+00 dE (1.order)= 0.000E+00
 bond charge predicted
       N       E                     dE             d eps       ncg     rms          rms(c)
DAV:   1    -0.202949948901E+03   -0.43444E-02   -0.60219E-02 10944   0.467E-01    0.614E-02
DAV:   2    -0.202950087205E+03   -0.13830E-03   -0.14005E-03 11216   0.917E-02    0.823E-02
DAV:   3    -0.202950091503E+03   -0.42982E-05   -0.28414E-04 11640   0.769E-02    0.776E-02
DAV:   4    -0.202950061343E+03    0.30160E-04   -0.20377E-04 10364   0.648E-02    0.510E-02
DAV:   5    -0.202950047963E+03    0.13380E-04   -0.61197E-05  7628   0.434E-02    0.352E-02
DAV:   6    -0.202950045764E+03    0.21991E-05   -0.41264E-05  6876   0.354E-02
  25 F= -.20295005E+03 E0= -.20041946E+03  d E =-.444431E-02
quench:  g(F)=  0.000E+00 g(S)=  0.000E+00 dE (1.order)= 0.000E+00
 bond charge predicted
       N       E                     dE             d eps       ncg     rms          rms(c)
DAV:   1    -0.202955730684E+03   -0.56827E-02   -0.97315E-02 10944   0.600E-01    0.730E-02
DAV:   2    -0.202955973694E+03   -0.24301E-03   -0.21630E-03 11296   0.120E-01    0.101E-01
DAV:   3    -0.202955945564E+03    0.28129E-04   -0.37043E-04 11552   0.998E-02    0.777E-02
DAV:   4    -0.202955954081E+03   -0.85171E-05   -0.30352E-04 10460   0.792E-02    0.847E-02
DAV:   5    -0.202955912013E+03    0.42068E-04   -0.16225E-04  8508   0.582E-02    0.436E-02
DAV:   6    -0.202955902148E+03    0.98655E-05   -0.64085E-05  7580   0.431E-02
  26 F= -.20295590E+03 E0= -.20042555E+03  d E =-.585638E-02
quench:  g(F)=  0.000E+00 g(S)=  0.000E+00 dE (1.order)= 0.000E+00
 bond charge predicted
       N       E                     dE             d eps       ncg     rms          rms(c)
DAV:   1    -0.202963233879E+03   -0.73219E-02   -0.14586E-01 10944   0.734E-01    0.910E-02
DAV:   2    -0.202963564832E+03   -0.33095E-03   -0.31878E-03 11292   0.138E-01    0.119E-01
DAV:   3    -0.202963543979E+03    0.20853E-04   -0.53896E-04 11768   0.109E-01    0.941E-02
DAV:   4    -0.202963578984E+03   -0.35005E-04   -0.54112E-04 11600   0.102E-01    0.112E-01
DAV:   5    -0.202963491756E+03    0.87227E-04   -0.22163E-04 10280   0.759E-02    0.523E-02
DAV:   6    -0.202963491858E+03   -0.10197E-06   -0.84745E-05  9156   0.509E-02
  27 F= -.20296349E+03 E0= -.20043437E+03  d E =-.758971E-02
quench:  g(F)=  0.000E+00 g(S)=  0.000E+00 dE (1.order)= 0.000E+00
 bond charge predicted
       N       E                     dE             d eps       ncg     rms          rms(c)
DAV:   1    -0.202972152020E+03   -0.86603E-02   -0.22866E-01 10944   0.915E-01    0.114E-01
DAV:   2    -0.202972669577E+03   -0.51756E-03   -0.49708E-03 11292   0.167E-01    0.138E-01
DAV:   3    -0.202972688270E+03   -0.18692E-04   -0.83951E-04 11648   0.145E-01    0.132E-01
DAV:   4    -0.202972689724E+03   -0.14544E-05   -0.81743E-04 11764   0.129E-01    0.133E-01
DAV:   5    -0.202972570426E+03    0.11930E-03   -0.37654E-04 11028   0.923E-02    0.599E-02
DAV:   6    -0.202972568094E+03    0.23324E-05   -0.15076E-04 10404   0.651E-02    0.605E-02
DAV:   7    -0.202972551345E+03    0.16748E-04   -0.78703E-05  8832   0.454E-02    0.340E-02
DAV:   8    -0.202972541364E+03    0.99818E-05   -0.26557E-05  6616   0.288E-02
  28 F= -.20297254E+03 E0= -.20044421E+03  d E =-.904951E-02
quench:  g(F)=  0.000E+00 g(S)=  0.000E+00 dE (1.order)= 0.000E+00
 bond charge predicted
       N       E                     dE             d eps       ncg     rms          rms(c)
DAV:   1    -0.202982125061E+03   -0.95737E-02   -0.28132E-01 10944   0.101E+00    0.123E-01
DAV:   2    -0.202982713395E+03   -0.58833E-03   -0.60309E-03 11296   0.186E-01    0.151E-01
DAV:   3    -0.202982739792E+03   -0.26397E-04   -0.95949E-04 11736   0.146E-01    0.141E-01
DAV:   4    -0.202982708991E+03    0.30801E-04   -0.95451E-04 11712   0.135E-01    0.129E-01
DAV:   5    -0.202982622134E+03    0.86857E-04   -0.32707E-04 11148   0.958E-02    0.807E-02
DAV:   6    -0.202982592271E+03    0.29863E-04   -0.15949E-04 10836   0.692E-02    0.551E-02
DAV:   7    -0.202982581791E+03    0.10480E-04   -0.86450E-05  9604   0.509E-02    0.393E-02
DAV:   8    -0.202982568215E+03    0.13576E-04   -0.40455E-05  6932   0.356E-02    0.144E-02
DAV:   9    -0.202982567557E+03    0.65801E-06   -0.99167E-06  5804   0.159E-02
  29 F= -.20298257E+03 E0= -.20045546E+03  d E =-.100262E-01
quench:  g(F)=  0.000E+00 g(S)=  0.000E+00 dE (1.order)= 0.000E+00
 bond charge predicted
       N       E                     dE             d eps       ncg     rms          rms(c)
DAV:   1    -0.202992220087E+03   -0.96519E-02   -0.37600E-01 10944   0.115E+00    0.136E-01
DAV:   2    -0.202992950848E+03   -0.73076E-03   -0.78851E-03 11300   0.193E-01    0.134E-01
DAV:   3    -0.202992910387E+03    0.40461E-04   -0.72617E-04 11596   0.137E-01    0.882E-02
DAV:   4    -0.202993133162E+03   -0.22277E-03   -0.88904E-04 11728   0.133E-01    0.185E-01
DAV:   5    -0.202992868264E+03    0.26490E-03   -0.63631E-04 11300   0.113E-01    0.632E-02
DAV:   6    -0.202992876487E+03   -0.82236E-05   -0.15507E-04 11012   0.660E-02    0.655E-02
DAV:   7    -0.202992853044E+03    0.23444E-04   -0.99318E-05 10056   0.539E-02    0.378E-02
DAV:   8    -0.202992839693E+03    0.13351E-04   -0.35417E-05  6632   0.342E-02    0.137E-02
DAV:   9    -0.202992839440E+03    0.25262E-06   -0.93579E-06  5772   0.148E-02
  30 F= -.20299284E+03 E0= -.20046672E+03  d E =-.102719E-01
quench:  g(F)=  0.000E+00 g(S)=  0.000E+00 dE (1.order)= 0.000E+00
 bond charge predicted
       N       E                     dE             d eps       ncg     rms          rms(c)
DAV:   1    -0.203001043777E+03   -0.82041E-02   -0.26697E-01 10944   0.961E-01    0.139E-01
DAV:   2    -0.203001576717E+03   -0.53294E-03   -0.62087E-03 11272   0.184E-01    0.152E-01
DAV:   3    -0.203001702912E+03   -0.12619E-03   -0.11985E-03 11824   0.163E-01    0.179E-01
DAV:   4    -0.203001548474E+03    0.15444E-03   -0.11682E-03 11876   0.151E-01    0.126E-01
DAV:   5    -0.203001463347E+03    0.85127E-04   -0.36957E-04 11464   0.104E-01    0.835E-02
DAV:   6    -0.203001438064E+03    0.25283E-04   -0.22661E-04 11812   0.816E-02    0.669E-02
DAV:   7    -0.203001407083E+03    0.30981E-04   -0.11306E-04 10412   0.590E-02    0.367E-02
DAV:   8    -0.203001394135E+03    0.12948E-04   -0.35090E-05  6976   0.341E-02    0.125E-02
DAV:   9    -0.203001394391E+03   -0.25591E-06   -0.85850E-06  5848   0.146E-02
  31 F= -.20300139E+03 E0= -.20047650E+03  d E =-.855495E-02
quench:  g(F)=  0.000E+00 g(S)=  0.000E+00 dE (1.order)= 0.000E+00
 bond charge predicted
       N       E                     dE             d eps       ncg     rms          rms(c)
DAV:   1    -0.203006573914E+03   -0.51798E-02   -0.15837E-01 10944   0.690E-01    0.107E-01
DAV:   2    -0.203006858159E+03   -0.28424E-03   -0.35266E-03 11336   0.117E-01    0.860E-02
DAV:   3    -0.203006941147E+03   -0.82988E-04   -0.54190E-04 11608   0.116E-01    0.124E-01
DAV:   4    -0.203006939562E+03    0.15845E-05   -0.71986E-04 11560   0.120E-01    0.123E-01
DAV:   5    -0.203006800013E+03    0.13955E-03   -0.30605E-04 11072   0.860E-02    0.378E-02
DAV:   6    -0.203006803940E+03   -0.39268E-05   -0.84855E-05  9736   0.468E-02
  32 F= -.20300680E+03 E0= -.20048240E+03  d E =-.540955E-02
quench:  g(F)=  0.000E+00 g(S)=  0.000E+00 dE (1.order)= 0.000E+00
 bond charge predicted
       N       E                     dE             d eps       ncg     rms          rms(c)
DAV:   1    -0.203011824156E+03   -0.50241E-02   -0.76900E-02 10944   0.523E-01    0.760E-02
DAV:   2    -0.203012049075E+03   -0.22492E-03   -0.18191E-03 11276   0.120E-01    0.116E-01
DAV:   3    -0.203011994881E+03    0.54195E-04   -0.42705E-04 11572   0.110E-01    0.867E-02
DAV:   4    -0.203011997700E+03   -0.28189E-05   -0.32480E-04 10992   0.798E-02    0.903E-02
DAV:   5    -0.203011950300E+03    0.47399E-04   -0.18600E-04  9756   0.615E-02    0.427E-02
DAV:   6    -0.203011940637E+03    0.96635E-05   -0.73048E-05  8980   0.485E-02
  33 F= -.20301194E+03 E0= -.20048787E+03  d E =-.513670E-02
quench:  g(F)=  0.000E+00 g(S)=  0.000E+00 dE (1.order)= 0.000E+00
 bond charge predicted
       N       E                     dE             d eps       ncg     rms          rms(c)
DAV:   1    -0.203018366095E+03   -0.64158E-02   -0.13346E-01 10944   0.689E-01    0.874E-02
DAV:   2    -0.203018666488E+03   -0.30039E-03   -0.29379E-03 11308   0.130E-01    0.107E-01
DAV:   3    -0.203018638898E+03    0.27591E-04   -0.44002E-04 11624   0.104E-01    0.777E-02
DAV:   4    -0.203018713787E+03   -0.74889E-04   -0.49661E-04 10784   0.971E-02    0.121E-01
DAV:   5    -0.203018599860E+03    0.11393E-03   -0.24648E-04  9580   0.757E-02    0.417E-02
DAV:   6    -0.203018603885E+03   -0.40253E-05   -0.64104E-05  8212   0.434E-02
  34 F= -.20301860E+03 E0= -.20049561E+03  d E =-.666325E-02
quench:  g(F)=  0.000E+00 g(S)=  0.000E+00 dE (1.order)= 0.000E+00
 bond charge predicted
       N       E                     dE             d eps       ncg     rms          rms(c)
DAV:   1    -0.203026733428E+03   -0.81336E-02   -0.19802E-01 10944   0.844E-01    0.113E-01
DAV:   2    -0.203027217968E+03   -0.48454E-03   -0.44192E-03 11300   0.163E-01    0.145E-01
DAV:   3    -0.203027217911E+03    0.57171E-07   -0.87770E-04 11612   0.151E-01    0.137E-01
DAV:   4    -0.203027191241E+03    0.26669E-04   -0.79804E-04 11776   0.125E-01    0.128E-01
DAV:   5    -0.203027091929E+03    0.99312E-04   -0.35407E-04 11216   0.891E-02    0.597E-02
DAV:   6    -0.203027091274E+03    0.65504E-06   -0.15864E-04 10472   0.689E-02    0.608E-02
DAV:   7    -0.203027068892E+03    0.22382E-04   -0.79481E-05  8928   0.471E-02    0.292E-02
DAV:   8    -0.203027062029E+03    0.68629E-05   -0.25093E-05  6632   0.284E-02
  35 F= -.20302706E+03 E0= -.20050478E+03  d E =-.845814E-02
quench:  g(F)=  0.000E+00 g(S)=  0.000E+00 dE (1.order)= 0.000E+00
 bond charge predicted
       N       E                     dE             d eps       ncg     rms          rms(c)
DAV:   1    -0.203036798485E+03   -0.97296E-02   -0.30955E-01 10944   0.105E+00    0.133E-01
DAV:   2    -0.203037445805E+03   -0.64732E-03   -0.67497E-03 11284   0.183E-01    0.145E-01
DAV:   3    -0.203037525909E+03   -0.80104E-04   -0.10750E-03 11732   0.156E-01    0.155E-01
DAV:   4    -0.203037487330E+03    0.38579E-04   -0.11625E-03 11796   0.149E-01    0.141E-01
DAV:   5    -0.203037377792E+03    0.10954E-03   -0.39853E-04 11288   0.105E-01    0.832E-02
DAV:   6    -0.203037345707E+03    0.32084E-04   -0.16164E-04 10788   0.694E-02    0.548E-02
DAV:   7    -0.203037337757E+03    0.79506E-05   -0.85397E-05  9388   0.508E-02
  36 F= -.20303734E+03 E0= -.20051621E+03  d E =-.102757E-01
quench:  g(F)=  0.000E+00 g(S)=  0.000E+00 dE (1.order)= 0.000E+00
 bond charge predicted
       N       E                     dE             d eps       ncg     rms          rms(c)
DAV:   1    -0.203048440236E+03   -0.11095E-01   -0.40599E-01 10944   0.120E+00    0.158E-01
DAV:   2    -0.203049341791E+03   -0.90155E-03   -0.89973E-03 11292   0.225E-01    0.196E-01
DAV:   3    -0.203049389646E+03   -0.47855E-04   -0.16750E-03 11796   0.191E-01    0.186E-01
DAV:   4    -0.203049311525E+03    0.78121E-04   -0.15616E-03 11712   0.174E-01    0.161E-01
DAV:   5    -0.203049214434E+03    0.97091E-04   -0.58322E-04 11520   0.128E-01    0.115E-01
DAV:   6    -0.203049134300E+03    0.80135E-04   -0.28102E-04 11492   0.935E-02    0.649E-02
DAV:   7    -0.203049115672E+03    0.18627E-04   -0.11544E-04 10756   0.592E-02    0.397E-02
DAV:   8    -0.203049103502E+03    0.12170E-04   -0.55253E-05  8564   0.409E-02    0.185E-02
DAV:   9    -0.203049102391E+03    0.11106E-05   -0.14665E-05  5932   0.202E-02
  37 F= -.20304910E+03 E0= -.20052934E+03  d E =-.117646E-01
quench:  g(F)=  0.000E+00 g(S)=  0.000E+00 dE (1.order)= 0.000E+00
 bond charge predicted
       N       E                     dE             d eps       ncg     rms          rms(c)
DAV:   1    -0.203060533252E+03   -0.11430E-01   -0.57989E-01 10944   0.141E+00    0.176E-01
DAV:   2    -0.203061647618E+03   -0.11144E-02   -0.12239E-02 11268   0.230E-01    0.162E-01
DAV:   3    -0.203061752536E+03   -0.10492E-03   -0.14259E-03 11680   0.188E-01    0.167E-01
DAV:   4    -0.203061931382E+03   -0.17885E-03   -0.19687E-03 11888   0.193E-01    0.223E-01
DAV:   5    -0.203061553442E+03    0.37794E-03   -0.90471E-04 11716   0.146E-01    0.855E-02
DAV:   6    -0.203061553178E+03    0.26401E-06   -0.24550E-04 11688   0.832E-02    0.793E-02
DAV:   7    -0.203061521955E+03    0.31222E-04   -0.14921E-04 11180   0.663E-02    0.443E-02
DAV:   8    -0.203061506048E+03    0.15907E-04   -0.59725E-05  8860   0.432E-02    0.197E-02
DAV:   9    -0.203061504698E+03    0.13501E-05   -0.16792E-05  5924   0.213E-02
  38 F= -.20306150E+03 E0= -.20054308E+03  d E =-.124023E-01
quench:  g(F)=  0.000E+00 g(S)=  0.000E+00 dE (1.order)= 0.000E+00
 bond charge predicted
       N       E                     dE             d eps       ncg     rms          rms(c)
DAV:   1    -0.203071420805E+03   -0.99148E-02   -0.47363E-01 10944   0.127E+00    0.181E-01
DAV:   2    -0.203072308858E+03   -0.88805E-03   -0.10319E-02 11268   0.233E-01    0.183E-01
DAV:   3    -0.203072528471E+03   -0.21961E-03   -0.18196E-03 11832   0.205E-01    0.223E-01
DAV:   4    -0.203072335905E+03    0.19257E-03   -0.20258E-03 11908   0.196E-01    0.175E-01
DAV:   5    -0.203072165002E+03    0.17090E-03   -0.67815E-04 11496   0.137E-01    0.106E-01
DAV:   6    -0.203072132549E+03    0.32453E-04   -0.38431E-04 11980   0.106E-01    0.894E-02
DAV:   7    -0.203072074420E+03    0.58128E-04   -0.19465E-04 11540   0.773E-02    0.464E-02
DAV:   8    -0.203072054982E+03    0.19438E-04   -0.63100E-05  9276   0.445E-02    0.174E-02
DAV:   9    -0.203072054685E+03    0.29734E-06   -0.14242E-05  6000   0.195E-02
  39 F= -.20307205E+03 E0= -.20055511E+03  d E =-.105500E-01
quench:  g(F)=  0.000E+00 g(S)=  0.000E+00 dE (1.order)= 0.000E+00
 bond charge predicted
       N       E                     dE             d eps       ncg     rms          rms(c)
DAV:   1    -0.203077432456E+03   -0.53775E-02   -0.29585E-01 10944   0.920E-01    0.152E-01
DAV:   2    -0.203077941182E+03   -0.50873E-03   -0.66115E-03 11312   0.151E-01    0.110E-01
DAV:   3    -0.203078390143E+03   -0.44896E-03   -0.15655E-03 11840   0.185E-01    0.244E-01
DAV:   4    -0.203077980048E+03    0.41010E-03   -0.16386E-03 11916   0.179E-01    0.123E-01
DAV:   5    -0.203077838135E+03    0.14191E-03   -0.35920E-04 11580   0.103E-01    0.509E-02
DAV:   6    -0.203077837212E+03    0.92234E-06   -0.14215E-04 11488   0.611E-02    0.497E-02
DAV:   7    -0.203077813072E+03    0.24140E-04   -0.57942E-05  8388   0.420E-02    0.169E-02
DAV:   8    -0.203077811370E+03    0.17021E-05   -0.12674E-05  6064   0.185E-02
  40 F= -.20307781E+03 E0= -.20056118E+03  d E =-.575669E-02
quench:  g(F)=  0.000E+00 g(S)=  0.000E+00 dE (1.order)= 0.000E+00
 bond charge predicted
       N       E                     dE             d eps       ncg     rms          rms(c)
DAV:   1    -0.203081112758E+03   -0.32997E-02   -0.50524E-02 10944   0.400E-01    0.688E-02
DAV:   2    -0.203081229987E+03   -0.11723E-03   -0.12457E-03 11288   0.871E-02    0.805E-02
DAV:   3    -0.203081250515E+03   -0.20529E-04   -0.31015E-04 11676   0.873E-02    0.915E-02
DAV:   4    -0.203081214137E+03    0.36379E-04   -0.28443E-04 10464   0.724E-02    0.693E-02
DAV:   5    -0.203081192399E+03    0.21737E-04   -0.14197E-04  9700   0.561E-02    0.454E-02
DAV:   6    -0.203081176054E+03    0.16346E-04   -0.64061E-05  8964   0.459E-02    0.246E-02
DAV:   7    -0.203081171222E+03    0.48320E-05   -0.18304E-05  6544   0.250E-02
  41 F= -.20308117E+03 E0= -.20056492E+03  d E =-.335985E-02
quench:  g(F)=  0.000E+00 g(S)=  0.000E+00 dE (1.order)= 0.000E+00
 bond charge predicted
       N       E                     dE             d eps       ncg     rms          rms(c)
DAV:   1    -0.203085372739E+03   -0.41967E-02   -0.85158E-02 10944   0.545E-01    0.644E-02
DAV:   2    -0.203085534279E+03   -0.16154E-03   -0.17395E-03 11344   0.903E-02    0.599E-02
DAV:   3    -0.203085540817E+03   -0.65383E-05   -0.18285E-04 11676   0.677E-02    0.564E-02
DAV:   4    -0.203085566819E+03   -0.26002E-04   -0.22638E-04  7956   0.672E-02    0.794E-02
DAV:   5    -0.203085518464E+03    0.48356E-04   -0.11299E-04  7372   0.501E-02    0.273E-02
DAV:   6    -0.203085518639E+03   -0.17545E-06   -0.31304E-05  6520   0.304E-02
  42 F= -.20308552E+03 E0= -.20056973E+03  d E =-.434742E-02
quench:  g(F)=  0.000E+00 g(S)=  0.000E+00 dE (1.order)= 0.000E+00
 bond charge predicted
       N       E                     dE             d eps       ncg     rms          rms(c)
DAV:   1    -0.203091015583E+03   -0.54971E-02   -0.14471E-01 10944   0.711E-01    0.869E-02
DAV:   2    -0.203091311603E+03   -0.29602E-03   -0.30127E-03 11292   0.124E-01    0.972E-02
DAV:   3    -0.203091341456E+03   -0.29853E-04   -0.47339E-04 11700   0.105E-01    0.101E-01
DAV:   4    -0.203091326393E+03    0.15063E-04   -0.48618E-04 11176   0.963E-02    0.937E-02
DAV:   5    -0.203091268682E+03    0.57711E-04   -0.16769E-04  9660   0.669E-02    0.460E-02
DAV:   6    -0.203091268097E+03    0.58555E-06   -0.71621E-05  8820   0.456E-02
  43 F= -.20309127E+03 E0= -.20057642E+03  d E =-.574946E-02
quench:  g(F)=  0.000E+00 g(S)=  0.000E+00 dE (1.order)= 0.000E+00
 bond charge predicted
       N       E                     dE             d eps       ncg     rms          rms(c)
DAV:   1    -0.203097987012E+03   -0.67183E-02   -0.22428E-01 10944   0.885E-01    0.113E-01
DAV:   2    -0.203098492467E+03   -0.50545E-03   -0.47601E-03 11296   0.162E-01    0.135E-01
DAV:   3    -0.203098508326E+03   -0.15859E-04   -0.82471E-04 11584   0.149E-01    0.132E-01
DAV:   4    -0.203098516896E+03   -0.85703E-05   -0.79066E-04 11696   0.126E-01    0.138E-01
DAV:   5    -0.203098381276E+03    0.13562E-03   -0.39119E-04 11008   0.905E-02    0.539E-02
DAV:   6    -0.203098389321E+03   -0.80442E-05   -0.14528E-04 10276   0.651E-02    0.602E-02
DAV:   7    -0.203098365348E+03    0.23973E-04   -0.73218E-05  8432   0.455E-02    0.262E-02
DAV:   8    -0.203098361205E+03    0.41436E-05   -0.24840E-05  6608   0.271E-02
  44 F= -.20309836E+03 E0= -.20058403E+03  d E =-.709311E-02
quench:  g(F)=  0.000E+00 g(S)=  0.000E+00 dE (1.order)= 0.000E+00
 bond charge predicted
       N       E                     dE             d eps       ncg     rms          rms(c)
DAV:   1    -0.203106206177E+03   -0.78408E-02   -0.32064E-01 10944   0.105E+00    0.129E-01
DAV:   2    -0.203106823972E+03   -0.61779E-03   -0.66805E-03 11256   0.179E-01    0.127E-01
DAV:   3    -0.203106886691E+03   -0.62719E-04   -0.85832E-04 11720   0.143E-01    0.134E-01
DAV:   4    -0.203106903855E+03   -0.17164E-04   -0.10272E-03 11776   0.139E-01    0.144E-01
DAV:   5    -0.203106776559E+03    0.12730E-03   -0.40517E-04 11344   0.101E-01    0.755E-02
DAV:   6    -0.203106757754E+03    0.18805E-04   -0.15376E-04 10808   0.675E-02    0.559E-02
DAV:   7    -0.203106744515E+03    0.13240E-04   -0.80270E-05  9468   0.494E-02    0.346E-02
DAV:   8    -0.203106735369E+03    0.91457E-05   -0.37969E-05  6720   0.347E-02
  45 F= -.20310674E+03 E0= -.20059341E+03  d E =-.837416E-02
quench:  g(F)=  0.000E+00 g(S)=  0.000E+00 dE (1.order)= 0.000E+00
 bond charge predicted
       N       E                     dE             d eps       ncg     rms          rms(c)
DAV:   1    -0.203115485157E+03   -0.87406E-02   -0.44575E-01 10944   0.124E+00    0.151E-01
DAV:   2    -0.203116318562E+03   -0.83341E-03   -0.91913E-03 11248   0.201E-01    0.134E-01
DAV:   3    -0.203116441028E+03   -0.12247E-03   -0.10927E-03 11712   0.162E-01    0.158E-01
DAV:   4    -0.203116457097E+03   -0.16069E-04   -0.13829E-03 11816   0.162E-01    0.167E-01
DAV:   5    -0.203116272431E+03    0.18467E-03   -0.55931E-04 11572   0.117E-01    0.812E-02
DAV:   6    -0.203116256257E+03    0.16174E-04   -0.19417E-04 11448   0.743E-02    0.620E-02
DAV:   7    -0.203116243940E+03    0.12318E-04   -0.10859E-04 10408   0.572E-02    0.442E-02
DAV:   8    -0.203116227999E+03    0.15940E-04   -0.52746E-05  7580   0.407E-02    0.174E-02
DAV:   9    -0.203116226840E+03    0.11592E-05   -0.12301E-05  5792   0.184E-02
  46 F= -.20311623E+03 E0= -.20060398E+03  d E =-.949147E-02
quench:  g(F)=  0.000E+00 g(S)=  0.000E+00 dE (1.order)= 0.000E+00
 bond charge predicted
       N       E                     dE             d eps       ncg     rms          rms(c)
DAV:   1    -0.203125444850E+03   -0.92169E-02   -0.54046E-01 10944   0.137E+00    0.167E-01
DAV:   2    -0.203126446788E+03   -0.10019E-02   -0.11036E-02 11272   0.225E-01    0.154E-01
DAV:   3    -0.203126568701E+03   -0.12191E-03   -0.12896E-03 11720   0.177E-01    0.172E-01
DAV:   4    -0.203126588201E+03   -0.19500E-04   -0.16484E-03 11796   0.176E-01    0.183E-01
DAV:   5    -0.203126376494E+03    0.21171E-03   -0.66705E-04 11612   0.128E-01    0.918E-02
DAV:   6    -0.203126368341E+03    0.81528E-05   -0.27623E-04 11880   0.896E-02    0.813E-02
DAV:   7    -0.203126325263E+03    0.43078E-04   -0.15360E-04 11096   0.688E-02    0.413E-02
DAV:   8    -0.203126312174E+03    0.13089E-04   -0.57240E-05  9124   0.424E-02    0.187E-02
DAV:   9    -0.203126310818E+03    0.13559E-05   -0.14713E-05  5880   0.203E-02
  47 F= -.20312631E+03 E0= -.20061531E+03  d E =-.100840E-01
quench:  g(F)=  0.000E+00 g(S)=  0.000E+00 dE (1.order)= 0.000E+00
 bond charge predicted
       N       E                     dE             d eps       ncg     rms          rms(c)
DAV:   1    -0.203134257380E+03   -0.79452E-02   -0.71929E-01 10944   0.154E+00    0.184E-01
DAV:   2    -0.203135520267E+03   -0.12629E-02   -0.14576E-02 11192   0.232E-01    0.129E-01
DAV:   3    -0.203135610361E+03   -0.90094E-04   -0.10343E-03 11688   0.161E-01    0.145E-01
DAV:   4    -0.203135771253E+03   -0.16089E-03   -0.12831E-03 11808   0.171E-01    0.195E-01
DAV:   5    -0.203135471759E+03    0.29949E-03   -0.93085E-04 11708   0.140E-01    0.832E-02
DAV:   6    -0.203135486750E+03   -0.14992E-04   -0.28472E-04 11704   0.821E-02    0.853E-02
DAV:   7    -0.203135435672E+03    0.51078E-04   -0.16104E-04 11148   0.676E-02    0.392E-02
DAV:   8    -0.203135422949E+03    0.12723E-04   -0.51193E-05  8836   0.400E-02    0.183E-02
DAV:   9    -0.203135421340E+03    0.16094E-05   -0.12608E-05  5900   0.187E-02
  48 F= -.20313542E+03 E0= -.20062528E+03  d E =-.911052E-02
quench:  g(F)=  0.000E+00 g(S)=  0.000E+00 dE (1.order)= 0.000E+00
 bond charge predicted
       N       E                     dE             d eps       ncg     rms          rms(c)
DAV:   1    -0.203139996951E+03   -0.45740E-02   -0.31151E-01 10944   0.967E-01    0.174E-01
DAV:   2    -0.203140559327E+03   -0.56238E-03   -0.74173E-03 11276   0.202E-01    0.169E-01
DAV:   3    -0.203140838624E+03   -0.27930E-03   -0.17984E-03 11944   0.201E-01    0.237E-01
DAV:   4    -0.203140493908E+03    0.34472E-03   -0.18394E-03 11972   0.186E-01    0.143E-01
DAV:   5    -0.203140388606E+03    0.10530E-03   -0.64604E-04 11604   0.131E-01    0.103E-01
DAV:   6    -0.203140326307E+03    0.62299E-04   -0.36310E-04 11960   0.103E-01    0.732E-02
DAV:   7    -0.203140284398E+03    0.41909E-04   -0.14289E-04 11160   0.652E-02    0.404E-02
DAV:   8    -0.203140270852E+03    0.13546E-04   -0.44789E-05  7628   0.362E-02    0.157E-02
DAV:   9    -0.203140271303E+03   -0.45070E-06   -0.12104E-05  5960   0.176E-02
  49 F= -.20314027E+03 E0= -.20063113E+03  d E =-.484996E-02
quench:  g(F)=  0.000E+00 g(S)=  0.000E+00 dE (1.order)= 0.000E+00
 bond charge predicted
       N       E                     dE             d eps       ncg     rms          rms(c)
DAV:   1    -0.203142203194E+03   -0.19323E-02   -0.36825E-02 10944   0.313E-01    0.623E-02
DAV:   2    -0.203142270705E+03   -0.67512E-04   -0.85137E-04 11364   0.554E-02    0.443E-02
DAV:   3    -0.203142377297E+03   -0.10659E-03   -0.33614E-04 10840   0.834E-02    0.115E-01
DAV:   4    -0.203142270629E+03    0.10667E-03   -0.29807E-04  9524   0.764E-02    0.416E-02
DAV:   5    -0.203142255737E+03    0.14892E-04   -0.46215E-05  7220   0.395E-02    0.218E-02
DAV:   6    -0.203142254217E+03    0.15197E-05   -0.20610E-05  6388   0.240E-02
  50 F= -.20314225E+03 E0= -.20063313E+03  d E =-.198291E-02
quench:  g(F)=  0.000E+00 g(S)=  0.000E+00 dE (1.order)= 0.000E+00
 bond charge predicted
       N       E                     dE             d eps       ncg     rms          rms(c)
DAV:   1    -0.203144810003E+03   -0.25543E-02   -0.73152E-02 10944   0.479E-01    0.621E-02
DAV:   2    -0.203144943132E+03   -0.13313E-03   -0.15620E-03 11320   0.769E-02    0.521E-02
DAV:   3    -0.203144958495E+03   -0.15363E-04   -0.16007E-04 11632   0.670E-02    0.619E-02
DAV:   4    -0.203144950946E+03    0.75491E-05   -0.11998E-04  8712   0.586E-02    0.568E-02
DAV:   5    -0.203144936796E+03    0.14150E-04   -0.11336E-04  6828   0.488E-02    0.443E-02
DAV:   6    -0.203144926474E+03    0.10322E-04   -0.60441E-05  6836   0.356E-02    0.283E-02
DAV:   7    -0.203144921579E+03    0.48951E-05   -0.17986E-05  6564   0.226E-02
  51 F= -.20314492E+03 E0= -.20063593E+03  d E =-.266736E-02
quench:  g(F)=  0.000E+00 g(S)=  0.000E+00 dE (1.order)= 0.000E+00
 bond charge predicted
       N       E                     dE             d eps       ncg     rms          rms(c)
DAV:   1    -0.203148225628E+03   -0.32992E-02   -0.86212E-02 10944   0.544E-01    0.639E-02
DAV:   2    -0.203148391074E+03   -0.16545E-03   -0.17254E-03 11228   0.920E-02    0.666E-02
DAV:   3    -0.203148424370E+03   -0.33296E-04   -0.27402E-04 11668   0.773E-02    0.833E-02
DAV:   4    -0.203148393151E+03    0.31219E-04   -0.26114E-04  9512   0.703E-02    0.594E-02
DAV:   5    -0.203148377729E+03    0.15422E-04   -0.80318E-05  7556   0.482E-02    0.407E-02
DAV:   6    -0.203148371249E+03    0.64804E-05   -0.39917E-05  6820   0.354E-02
  52 F= -.20314837E+03 E0= -.20063995E+03  d E =-.344967E-02
quench:  g(F)=  0.000E+00 g(S)=  0.000E+00 dE (1.order)= 0.000E+00
 bond charge predicted
       N       E                     dE             d eps       ncg     rms          rms(c)
DAV:   1    -0.203152613420E+03   -0.42357E-02   -0.14860E-01 10944   0.714E-01    0.878E-02
DAV:   2    -0.203152922572E+03   -0.30915E-03   -0.30545E-03 11244   0.125E-01    0.958E-02
DAV:   3    -0.203152942038E+03   -0.19466E-04   -0.46637E-04 11532   0.110E-01    0.979E-02
DAV:   4    -0.203152955522E+03   -0.13484E-04   -0.46768E-04 10936   0.968E-02    0.107E-01
DAV:   5    -0.203152869092E+03    0.86430E-04   -0.23656E-04  9824   0.706E-02    0.393E-02
DAV:   6    -0.203152877779E+03   -0.86867E-05   -0.78321E-05  8616   0.480E-02
  53 F= -.20315288E+03 E0= -.20064457E+03  d E =-.450653E-02
quench:  g(F)=  0.000E+00 g(S)=  0.000E+00 dE (1.order)= 0.000E+00
 bond charge predicted
       N       E                     dE             d eps       ncg     rms          rms(c)
DAV:   1    -0.203157909327E+03   -0.50402E-02   -0.21310E-01 10944   0.854E-01    0.105E-01
DAV:   2    -0.203158353581E+03   -0.44425E-03   -0.43411E-03 11220   0.149E-01    0.124E-01
DAV:   3    -0.203158344610E+03    0.89710E-05   -0.67069E-04 11852   0.123E-01    0.107E-01
DAV:   4    -0.203158413365E+03   -0.68756E-04   -0.67565E-04 11592   0.111E-01    0.137E-01
DAV:   5    -0.203158273847E+03    0.13952E-03   -0.35217E-04 10524   0.902E-02    0.528E-02
DAV:   6    -0.203158283664E+03   -0.98170E-05   -0.11693E-04 10352   0.595E-02    0.569E-02
DAV:   7    -0.203158258713E+03    0.24952E-04   -0.79437E-05  8468   0.479E-02    0.226E-02
DAV:   8    -0.203158255291E+03    0.34214E-05   -0.18204E-05  6400   0.242E-02
  54 F= -.20315826E+03 E0= -.20065087E+03  d E =-.537751E-02
quench:  g(F)=  0.000E+00 g(S)=  0.000E+00 dE (1.order)= 0.000E+00
 bond charge predicted
       N       E                     dE             d eps       ncg     rms          rms(c)
DAV:   1    -0.203163726842E+03   -0.54681E-02   -0.31465E-01 10944   0.103E+00    0.120E-01
DAV:   2    -0.203164289090E+03   -0.56225E-03   -0.62366E-03 11232   0.160E-01    0.918E-02
DAV:   3    -0.203164315537E+03   -0.26448E-04   -0.48438E-04 11704   0.110E-01    0.901E-02
DAV:   4    -0.203164414058E+03   -0.98521E-04   -0.67563E-04 11440   0.116E-01    0.141E-01
DAV:   5    -0.203164266775E+03    0.14728E-03   -0.39803E-04 11152   0.909E-02    0.547E-02
DAV:   6    -0.203164267947E+03   -0.11728E-05   -0.10875E-04 10132   0.565E-02    0.513E-02
DAV:   7    -0.203164252948E+03    0.14999E-04   -0.63445E-05  8516   0.439E-02    0.294E-02
DAV:   8    -0.203164247542E+03    0.54061E-05   -0.28899E-05  6388   0.296E-02
  55 F= -.20316425E+03 E0= -.20065758E+03  d E =-.599225E-02
quench:  g(F)=  0.000E+00 g(S)=  0.000E+00 dE (1.order)= 0.000E+00
 bond charge predicted
       N       E                     dE             d eps       ncg     rms          rms(c)
DAV:   1    -0.203169858457E+03   -0.56055E-02   -0.36078E-01 10944   0.111E+00    0.131E-01
DAV:   2    -0.203170498198E+03   -0.63974E-03   -0.70116E-03 11260   0.184E-01    0.118E-01
DAV:   3    -0.203170602755E+03   -0.10456E-03   -0.84120E-04 11720   0.142E-01    0.147E-01
DAV:   4    -0.203170545212E+03    0.57542E-04   -0.98411E-04 11788   0.137E-01    0.128E-01
DAV:   5    -0.203170452256E+03    0.92956E-04   -0.35891E-04 11540   0.945E-02    0.714E-02
DAV:   6    -0.203170436313E+03    0.15944E-04   -0.17034E-04 11568   0.690E-02    0.539E-02
DAV:   7    -0.203170423014E+03    0.13298E-04   -0.83888E-05  9584   0.504E-02    0.378E-02
DAV:   8    -0.203170412174E+03    0.10841E-04   -0.39168E-05  6808   0.348E-02    0.166E-02
DAV:   9    -0.203170410845E+03    0.13285E-05   -0.95674E-06  5800   0.165E-02
  56 F= -.20317041E+03 E0= -.20066453E+03  d E =-.616330E-02
quench:  g(F)=  0.000E+00 g(S)=  0.000E+00 dE (1.order)= 0.000E+00
 bond charge predicted
       N       E                     dE             d eps       ncg     rms          rms(c)
DAV:   1    -0.203175048313E+03   -0.46361E-02   -0.46880E-01 10944   0.124E+00    0.146E-01
DAV:   2    -0.203175863477E+03   -0.81516E-03   -0.95518E-03 11168   0.184E-01    0.965E-02
DAV:   3    -0.203176061146E+03   -0.19767E-03   -0.86837E-04 11776   0.138E-01    0.172E-01
DAV:   4    -0.203175919567E+03    0.14158E-03   -0.97388E-04 11772   0.141E-01    0.115E-01
DAV:   5    -0.203175826508E+03    0.93059E-04   -0.37318E-04 11392   0.973E-02    0.643E-02
DAV:   6    -0.203175838214E+03   -0.11706E-04   -0.18354E-04 11196   0.690E-02    0.695E-02
DAV:   7    -0.203175802022E+03    0.36192E-04   -0.10208E-04 10200   0.550E-02    0.300E-02
DAV:   8    -0.203175794191E+03    0.78306E-05   -0.28705E-05  6584   0.305E-02
  57 F= -.20317579E+03 E0= -.20067040E+03  d E =-.538335E-02
quench:  g(F)=  0.000E+00 g(S)=  0.000E+00 dE (1.order)= 0.000E+00
 bond charge predicted
       N       E                     dE             d eps       ncg     rms          rms(c)
DAV:   1    -0.203178827025E+03   -0.30250E-02   -0.17210E-01 10944   0.714E-01    0.130E-01
DAV:   2    -0.203179143999E+03   -0.31697E-03   -0.40525E-03 11268   0.154E-01    0.130E-01
DAV:   3    -0.203179292689E+03   -0.14869E-03   -0.10309E-03 12000   0.153E-01    0.178E-01
DAV:   4    -0.203179085640E+03    0.20705E-03   -0.99706E-04 11984   0.136E-01    0.102E-01
DAV:   5    -0.203179043360E+03    0.42280E-04   -0.39105E-04 11616   0.975E-02    0.803E-02
DAV:   6    -0.203178995501E+03    0.47858E-04   -0.21548E-04 11808   0.776E-02    0.470E-02
DAV:   7    -0.203178980894E+03    0.14608E-04   -0.69936E-05  8628   0.457E-02    0.321E-02
DAV:   8    -0.203178972262E+03    0.86313E-05   -0.24326E-05  6620   0.274E-02
  58 F= -.20317897E+03 E0= -.20067421E+03  d E =-.317807E-02
quench:  g(F)=  0.000E+00 g(S)=  0.000E+00 dE (1.order)= 0.000E+00
 bond charge predicted
       N       E                     dE             d eps       ncg     rms          rms(c)
DAV:   1    -0.203180783937E+03   -0.18030E-02   -0.57426E-02 10944   0.411E-01    0.628E-02
DAV:   2    -0.203180894280E+03   -0.11034E-03   -0.13049E-03 11264   0.728E-02    0.536E-02
DAV:   3    -0.203180943922E+03   -0.49643E-04   -0.27309E-04 11496   0.771E-02    0.904E-02
DAV:   4    -0.203180906620E+03    0.37303E-04   -0.27350E-04  9468   0.727E-02    0.634E-02
DAV:   5    -0.203180872345E+03    0.34275E-04   -0.85418E-05  7676   0.491E-02    0.270E-02
DAV:   6    -0.203180872513E+03   -0.16728E-06   -0.31290E-05  6620   0.310E-02
  59 F= -.20318087E+03 E0= -.20067593E+03  d E =-.190025E-02
quench:  g(F)=  0.000E+00 g(S)=  0.000E+00 dE (1.order)= 0.000E+00
 bond charge predicted
       N       E                     dE             d eps       ncg     rms          rms(c)
DAV:   1    -0.203183099037E+03   -0.22267E-02   -0.66643E-02 10944   0.477E-01    0.552E-02
DAV:   2    -0.203183255204E+03   -0.15617E-03   -0.13636E-03 11240   0.928E-02    0.775E-02
DAV:   3    -0.203183222091E+03    0.33114E-04   -0.21633E-04 11584   0.760E-02    0.469E-02
DAV:   4    -0.203183221490E+03    0.60033E-06   -0.81814E-05  7408   0.410E-02
  60 F= -.20318322E+03 E0= -.20067822E+03  d E =-.234898E-02
quench:  g(F)=  0.000E+00 g(S)=  0.000E+00 dE (1.order)= 0.000E+00
 bond charge predicted
       N       E                     dE             d eps       ncg     rms          rms(c)
DAV:   1    -0.203186145504E+03   -0.29234E-02   -0.11032E-01 10944   0.615E-01    0.843E-02
DAV:   2    -0.203187302204E+03   -0.11567E-02   -0.39389E-03 11532   0.235E-01    0.332E-01
DAV:   3    -0.203186319736E+03    0.98247E-03   -0.21088E-03 11636   0.206E-01    0.634E-02
DAV:   4    -0.203186331944E+03   -0.12209E-04   -0.20197E-04 11468   0.628E-02    0.665E-02
DAV:   5    -0.203186318604E+03    0.13340E-04   -0.13060E-04 10804   0.586E-02    0.464E-02
DAV:   6    -0.203186308980E+03    0.96248E-05   -0.63347E-05  9140   0.461E-02
  61 F= -.20318631E+03 E0= -.20068212E+03  d E =-.308749E-02
quench:  g(F)=  0.000E+00 g(S)=  0.000E+00 dE (1.order)= 0.000E+00
 bond charge predicted
       N       E                     dE             d eps       ncg     rms          rms(c)
DAV:   1    -0.203189719728E+03   -0.34011E-02   -0.17079E-01 10944   0.766E-01    0.872E-02
DAV:   2    -0.203190053580E+03   -0.33385E-03   -0.33542E-03 11240   0.132E-01    0.915E-02
DAV:   3    -0.203190041759E+03    0.11821E-04   -0.39488E-04 11592   0.102E-01    0.744E-02
DAV:   4    -0.203190086193E+03   -0.44434E-04   -0.35984E-04 10508   0.828E-02    0.105E-01
DAV:   5    -0.203190011910E+03    0.74282E-04   -0.23192E-04  8728   0.687E-02    0.454E-02
DAV:   6    -0.203190014658E+03   -0.27481E-05   -0.79213E-05  8788   0.484E-02
  62 F= -.20319001E+03 E0= -.20068652E+03  d E =-.370568E-02
quench:  g(F)=  0.000E+00 g(S)=  0.000E+00 dE (1.order)= 0.000E+00
 bond charge predicted
       N       E                     dE             d eps       ncg     rms          rms(c)
DAV:   1    -0.203193742774E+03   -0.37309E-02   -0.24155E-01 10944   0.912E-01    0.103E-01
DAV:   2    -0.203194208859E+03   -0.46608E-03   -0.46713E-03 11220   0.151E-01    0.104E-01
DAV:   3    -0.203194273822E+03   -0.64963E-04   -0.67952E-04 11600   0.129E-01    0.125E-01
DAV:   4    -0.203194260246E+03    0.13576E-04   -0.65330E-04 11612   0.114E-01    0.122E-01
DAV:   5    -0.203194144732E+03    0.11551E-03   -0.28825E-04 10608   0.787E-02    0.412E-02
DAV:   6    -0.203194167083E+03   -0.22351E-04   -0.10594E-04  9668   0.548E-02    0.597E-02
DAV:   7    -0.203194139959E+03    0.27124E-04   -0.74507E-05  8264   0.460E-02    0.220E-02
DAV:   8    -0.203194137146E+03    0.28133E-05   -0.18839E-05  6020   0.238E-02
  63 F= -.20319414E+03 E0= -.20069088E+03  d E =-.412249E-02
quench:  g(F)=  0.000E+00 g(S)=  0.000E+00 dE (1.order)= 0.000E+00
 bond charge predicted
       N       E                     dE             d eps       ncg     rms          rms(c)
DAV:   1    -0.203198071904E+03   -0.39319E-02   -0.31974E-01 10944   0.105E+00    0.110E-01
DAV:   2    -0.203198628564E+03   -0.55666E-03   -0.59993E-03 11220   0.165E-01    0.886E-02
DAV:   3    -0.203198649237E+03   -0.20673E-04   -0.45050E-04 11696   0.106E-01    0.881E-02
DAV:   4    -0.203198701118E+03   -0.51881E-04   -0.53954E-04 11272   0.102E-01    0.120E-01
DAV:   5    -0.203198618050E+03    0.83068E-04   -0.33438E-04 10844   0.831E-02    0.654E-02
DAV:   6    -0.203198601311E+03    0.16739E-04   -0.11947E-04 10256   0.596E-02    0.477E-02
DAV:   7    -0.203198591127E+03    0.10183E-04   -0.64934E-05  8768   0.437E-02    0.308E-02
DAV:   8    -0.203198583717E+03    0.74108E-05   -0.30246E-05  6360   0.301E-02
  64 F= -.20319858E+03 E0= -.20069584E+03  d E =-.444657E-02
quench:  g(F)=  0.000E+00 g(S)=  0.000E+00 dE (1.order)= 0.000E+00
 bond charge predicted
       N       E                     dE             d eps       ncg     rms          rms(c)
DAV:   1    -0.203202537693E+03   -0.39466E-02   -0.41790E-01 10944   0.120E+00    0.123E-01
DAV:   2    -0.203203253359E+03   -0.71567E-03   -0.77731E-03 11204   0.182E-01    0.883E-02
DAV:   3    -0.203203283376E+03   -0.30017E-04   -0.47515E-04 11776   0.107E-01    0.905E-02
DAV:   4    -0.203203349590E+03   -0.66214E-04   -0.58852E-04 11504   0.110E-01    0.129E-01
DAV:   5    -0.203203242204E+03    0.10739E-03   -0.38233E-04 11232   0.874E-02    0.632E-02
DAV:   6    -0.203203231319E+03    0.10884E-04   -0.12898E-04 10764   0.598E-02    0.489E-02
DAV:   7    -0.203203222452E+03    0.88672E-05   -0.70655E-05  9196   0.462E-02
  65 F= -.20320322E+03 E0= -.20070083E+03  d E =-.463874E-02
quench:  g(F)=  0.000E+00 g(S)=  0.000E+00 dE (1.order)= 0.000E+00
 bond charge predicted
       N       E                     dE             d eps       ncg     rms          rms(c)
DAV:   1    -0.203207082802E+03   -0.38515E-02   -0.48018E-01 10944   0.129E+00    0.133E-01
DAV:   2    -0.203207945084E+03   -0.86228E-03   -0.88773E-03 11232   0.216E-01    0.136E-01
DAV:   3    -0.203208001189E+03   -0.56104E-04   -0.10234E-03 11776   0.155E-01    0.145E-01
DAV:   4    -0.203207988587E+03    0.12601E-04   -0.97397E-04 11856   0.133E-01    0.142E-01
DAV:   5    -0.203207886148E+03    0.10244E-03   -0.48341E-04 11652   0.106E-01    0.871E-02
DAV:   6    -0.203207843060E+03    0.43088E-04   -0.19244E-04 11712   0.771E-02    0.545E-02
DAV:   7    -0.203207835702E+03    0.73578E-05   -0.10920E-04 10900   0.552E-02    0.412E-02
DAV:   8    -0.203207821747E+03    0.13955E-04   -0.51766E-05  7940   0.395E-02    0.170E-02
DAV:   9    -0.203207820284E+03    0.14629E-05   -0.12134E-05  5784   0.181E-02
  66 F= -.20320782E+03 E0= -.20070613E+03  d E =-.459783E-02
quench:  g(F)=  0.000E+00 g(S)=  0.000E+00 dE (1.order)= 0.000E+00
 bond charge predicted
       N       E                     dE             d eps       ncg     rms          rms(c)
DAV:   1    -0.203210387412E+03   -0.25657E-02   -0.57130E-01 10944   0.137E+00    0.150E-01
DAV:   2    -0.203211369879E+03   -0.98247E-03   -0.11507E-02 11152   0.203E-01    0.936E-02
DAV:   3    -0.203211556540E+03   -0.18666E-03   -0.80660E-04 11880   0.128E-01    0.170E-01
DAV:   4    -0.203211388959E+03    0.16758E-03   -0.87125E-04 11756   0.134E-01    0.103E-01
DAV:   5    -0.203211336341E+03    0.52618E-04   -0.35085E-04 11528   0.940E-02    0.732E-02
DAV:   6    -0.203211333602E+03    0.27382E-05   -0.20680E-04 11500   0.724E-02    0.702E-02
DAV:   7    -0.203211293913E+03    0.39690E-04   -0.10569E-04 10340   0.557E-02    0.290E-02
DAV:   8    -0.203211286973E+03    0.69394E-05   -0.28289E-05  6976   0.291E-02
  67 F= -.20321129E+03 E0= -.20070981E+03  d E =-.346669E-02
quench:  g(F)=  0.000E+00 g(S)=  0.000E+00 dE (1.order)= 0.000E+00
 bond charge predicted
       N       E                     dE             d eps       ncg     rms          rms(c)
DAV:   1    -0.203213066285E+03   -0.17724E-02   -0.10694E-01 10944   0.536E-01    0.115E-01
DAV:   2    -0.203213266803E+03   -0.20052E-03   -0.26704E-03 11292   0.125E-01    0.110E-01
DAV:   3    -0.203213415383E+03   -0.14858E-03   -0.87658E-04 12080   0.139E-01    0.166E-01
DAV:   4    -0.203213227751E+03    0.18763E-03   -0.83109E-04 12000   0.125E-01    0.889E-02
DAV:   5    -0.203213186269E+03    0.41482E-04   -0.29633E-04 11644   0.875E-02    0.684E-02
DAV:   6    -0.203213146924E+03    0.39345E-04   -0.13516E-04 11348   0.618E-02    0.342E-02
DAV:   7    -0.203213140056E+03    0.68687E-05   -0.39838E-05  7060   0.349E-02
  68 F= -.20321314E+03 E0= -.20071192E+03  d E =-.185308E-02
quench:  g(F)=  0.000E+00 g(S)=  0.000E+00 dE (1.order)= 0.000E+00
 bond charge predicted
       N       E                     dE             d eps       ncg     rms          rms(c)
DAV:   1    -0.203214067093E+03   -0.92017E-03   -0.30437E-02 10944   0.314E-01    0.378E-02
DAV:   2    -0.203214137327E+03   -0.70234E-04   -0.66624E-04 11140   0.591E-02    0.477E-02
DAV:   3    -0.203214133554E+03    0.37729E-05   -0.98721E-05 10160   0.519E-02    0.430E-02
DAV:   4    -0.203214142917E+03   -0.93626E-05   -0.90299E-05  6868   0.429E-02
  69 F= -.20321414E+03 E0= -.20071350E+03  d E =-.100286E-02
quench:  g(F)=  0.000E+00 g(S)=  0.000E+00 dE (1.order)= 0.000E+00
 bond charge predicted
       N       E                     dE             d eps       ncg     rms          rms(c)
DAV:   1    -0.203215330100E+03   -0.11965E-02   -0.48752E-02 10944   0.413E-01    0.481E-02
DAV:   2    -0.203215440563E+03   -0.11046E-03   -0.96317E-04 11288   0.758E-02    0.666E-02
DAV:   3    -0.203215448819E+03   -0.82556E-05   -0.26576E-04 11332   0.699E-02    0.720E-02
DAV:   4    -0.203215419616E+03    0.29203E-04   -0.12480E-04  7960   0.528E-02    0.407E-02
DAV:   5    -0.203215410401E+03    0.92150E-05   -0.37181E-05  6732   0.341E-02
  70 F= -.20321541E+03 E0= -.20071459E+03  d E =-.126748E-02
quench:  g(F)=  0.000E+00 g(S)=  0.000E+00 dE (1.order)= 0.000E+00
 bond charge predicted
       N       E                     dE             d eps       ncg     rms          rms(c)
DAV:   1    -0.203216912158E+03   -0.14925E-02   -0.82097E-02 10944   0.535E-01    0.582E-02
DAV:   2    -0.203217076814E+03   -0.16466E-03   -0.15308E-03 11224   0.942E-02    0.694E-02
DAV:   3    -0.203217074385E+03    0.24290E-05   -0.21905E-04 11532   0.758E-02    0.640E-02
DAV:   4    -0.203217082697E+03   -0.83119E-05   -0.18255E-04  8224   0.612E-02    0.721E-02
DAV:   5    -0.203217043385E+03    0.39313E-04   -0.10601E-04  7052   0.463E-02    0.272E-02
DAV:   6    -0.203217046090E+03   -0.27054E-05   -0.35578E-05  6504   0.316E-02
  71 F= -.20321705E+03 E0= -.20071612E+03  d E =-.163569E-02
quench:  g(F)=  0.000E+00 g(S)=  0.000E+00 dE (1.order)= 0.000E+00
 bond charge predicted
       N       E                     dE             d eps       ncg     rms          rms(c)
DAV:   1    -0.203218759616E+03   -0.17162E-02   -0.12899E-01 10944   0.669E-01    0.663E-02
DAV:   2    -0.203219006235E+03   -0.24662E-03   -0.24062E-03 11148   0.113E-01    0.743E-02
DAV:   3    -0.203219001958E+03    0.42764E-05   -0.28970E-04 11640   0.826E-02    0.660E-02
DAV:   4    -0.203219023373E+03   -0.21415E-04   -0.23791E-04  8432   0.662E-02    0.821E-02
DAV:   5    -0.203218970640E+03    0.52733E-04   -0.12450E-04  7264   0.522E-02    0.293E-02
DAV:   6    -0.203218976198E+03   -0.55572E-05   -0.40306E-05  6832   0.344E-02
  72 F= -.20321898E+03 E0= -.20071866E+03  d E =-.193011E-02
quench:  g(F)=  0.000E+00 g(S)=  0.000E+00 dE (1.order)= 0.000E+00
 bond charge predicted
       N       E                     dE             d eps       ncg     rms          rms(c)
DAV:   1    -0.203220845438E+03   -0.18748E-02   -0.17853E-01 10944   0.788E-01    0.775E-02
DAV:   2    -0.203221181665E+03   -0.33623E-03   -0.32827E-03 11152   0.132E-01    0.852E-02
DAV:   3    -0.203221211983E+03   -0.30318E-04   -0.43553E-04 11640   0.100E-01    0.964E-02
DAV:   4    -0.203221194352E+03    0.17631E-04   -0.37281E-04 10668   0.858E-02    0.877E-02
DAV:   5    -0.203221135277E+03    0.59075E-04   -0.15045E-04  8648   0.575E-02    0.343E-02
DAV:   6    -0.203221143523E+03   -0.82461E-05   -0.60129E-05  7768   0.413E-02
  73 F= -.20322114E+03 E0= -.20072058E+03  d E =-.216733E-02
quench:  g(F)=  0.000E+00 g(S)=  0.000E+00 dE (1.order)= 0.000E+00
 bond charge predicted
       N       E                     dE             d eps       ncg     rms          rms(c)
DAV:   1    -0.203223072809E+03   -0.19375E-02   -0.24660E-01 10944   0.924E-01    0.903E-02
DAV:   2    -0.203223560978E+03   -0.48817E-03   -0.46005E-03 11132   0.161E-01    0.112E-01
DAV:   3    -0.203223522619E+03    0.38359E-04   -0.55780E-04 11584   0.118E-01    0.853E-02
DAV:   4    -0.203223532715E+03   -0.10096E-04   -0.31297E-04 11164   0.770E-02    0.916E-02
DAV:   5    -0.203223481293E+03    0.51422E-04   -0.21026E-04  8084   0.656E-02    0.496E-02
DAV:   6    -0.203223477369E+03    0.39235E-05   -0.91176E-05  9004   0.497E-02
  74 F= -.20322348E+03 E0= -.20072355E+03  d E =-.233385E-02
quench:  g(F)=  0.000E+00 g(S)=  0.000E+00 dE (1.order)= 0.000E+00
 bond charge predicted
       N       E                     dE             d eps       ncg     rms          rms(c)
DAV:   1    -0.203225419342E+03   -0.19380E-02   -0.29694E-01 10944   0.102E+00    0.100E-01
DAV:   2    -0.203225997850E+03   -0.57851E-03   -0.55042E-03 11208   0.180E-01    0.124E-01
DAV:   3    -0.203225983783E+03    0.14067E-04   -0.74523E-04 11612   0.131E-01    0.110E-01
DAV:   4    -0.203225996240E+03   -0.12457E-04   -0.58405E-04 11632   0.106E-01    0.117E-01
DAV:   5    -0.203225889308E+03    0.10693E-03   -0.25844E-04 10644   0.752E-02    0.428E-02
DAV:   6    -0.203225897976E+03   -0.86676E-05   -0.93937E-05 10560   0.519E-02
  75 F= -.20322590E+03 E0= -.20072595E+03  d E =-.242061E-02
quench:  g(F)=  0.000E+00 g(S)=  0.000E+00 dE (1.order)= 0.000E+00
 bond charge predicted
       N       E                     dE             d eps       ncg     rms          rms(c)
DAV:   1    -0.203227470207E+03   -0.15809E-02   -0.37773E-01 10944   0.114E+00    0.119E-01
DAV:   2    -0.203228411777E+03   -0.94157E-03   -0.77581E-03 11120   0.229E-01    0.198E-01
DAV:   3    -0.203228140658E+03    0.27112E-03   -0.11560E-03 11496   0.178E-01    0.968E-02
DAV:   4    -0.203228113805E+03    0.26853E-04   -0.24742E-04 11556   0.790E-02    0.764E-02
DAV:   5    -0.203228126490E+03   -0.12685E-04   -0.30433E-04  9708   0.811E-02    0.890E-02
DAV:   6    -0.203228085342E+03    0.41148E-04   -0.24087E-04 10480   0.697E-02    0.558E-02
DAV:   7    -0.203228070552E+03    0.14790E-04   -0.10437E-04 10556   0.500E-02    0.348E-02
DAV:   8    -0.203228058554E+03    0.11998E-04   -0.32547E-05  6692   0.320E-02    0.112E-02
DAV:   9    -0.203228058005E+03    0.54916E-06   -0.71278E-06  5728   0.129E-02
  76 F= -.20322806E+03 E0= -.20072850E+03  d E =-.216003E-02
quench:  g(F)=  0.000E+00 g(S)=  0.000E+00 dE (1.order)= 0.000E+00
 bond charge predicted
       N       E                     dE             d eps       ncg     rms          rms(c)
DAV:   1    -0.203229047327E+03   -0.98877E-03   -0.19679E-01 10944   0.791E-01    0.118E-01
DAV:   2    -0.203229391316E+03   -0.34399E-03   -0.42142E-03 11308   0.152E-01    0.113E-01
DAV:   3    -0.203229494047E+03   -0.10273E-03   -0.77033E-04 11824   0.133E-01    0.152E-01
DAV:   4    -0.203229369289E+03    0.12476E-03   -0.81431E-04 11884   0.123E-01    0.102E-01
DAV:   5    -0.203229320996E+03    0.48293E-04   -0.32299E-04 11656   0.913E-02    0.758E-02
DAV:   6    -0.203229288763E+03    0.32232E-04   -0.18876E-04 11892   0.741E-02    0.535E-02
DAV:   7    -0.203229267384E+03    0.21379E-04   -0.79121E-05  9212   0.490E-02    0.301E-02
DAV:   8    -0.203229259571E+03    0.78134E-05   -0.24343E-05  6724   0.276E-02
  77 F= -.20322926E+03 E0= -.20073017E+03  d E =-.120157E-02
quench:  g(F)=  0.000E+00 g(S)=  0.000E+00 dE (1.order)= 0.000E+00
 bond charge predicted
       N       E                     dE             d eps       ncg     rms          rms(c)
DAV:   1    -0.203230108840E+03   -0.84146E-03   -0.34900E-02 10944   0.316E-01    0.585E-02
DAV:   2    -0.203230180001E+03   -0.71161E-04   -0.83905E-04 11256   0.606E-02    0.482E-02
DAV:   3    -0.203230244779E+03   -0.64779E-04   -0.28155E-04 10928   0.771E-02    0.958E-02
DAV:   4    -0.203230187664E+03    0.57116E-04   -0.26124E-04  8700   0.711E-02    0.551E-02
DAV:   5    -0.203230158780E+03    0.28884E-04   -0.65410E-05  7472   0.431E-02    0.199E-02
DAV:   6    -0.203230160030E+03   -0.12505E-05   -0.21622E-05  6524   0.254E-02
  78 F= -.20323016E+03 E0= -.20073081E+03  d E =-.900459E-03
quench:  g(F)=  0.000E+00 g(S)=  0.000E+00 dE (1.order)= 0.000E+00
 bond charge predicted
       N       E                     dE             d eps       ncg     rms          rms(c)
DAV:   1    -0.203230869509E+03   -0.71073E-03   -0.50749E-02 10944   0.417E-01    0.435E-02
DAV:   2    -0.203230984865E+03   -0.11536E-03   -0.10415E-03 11252   0.789E-02    0.605E-02
DAV:   3    -0.203230965454E+03    0.19411E-04   -0.14000E-04 11428   0.623E-02    0.405E-02
DAV:   4    -0.203230963230E+03    0.22244E-05   -0.45251E-05  6968   0.353E-02
  79 F= -.20323096E+03 E0= -.20073190E+03  d E =-.803199E-03
quench:  g(F)=  0.000E+00 g(S)=  0.000E+00 dE (1.order)= 0.000E+00
 bond charge predicted
       N       E                     dE             d eps       ncg     rms          rms(c)
DAV:   1    -0.203231801357E+03   -0.83590E-03   -0.70590E-02 10944   0.498E-01    0.584E-02
DAV:   2    -0.203232329609E+03   -0.52825E-03   -0.20906E-03 11528   0.155E-01    0.219E-01
DAV:   3    -0.203231926304E+03    0.40331E-03   -0.10670E-03 11560   0.143E-01    0.537E-02
DAV:   4    -0.203231914128E+03    0.12176E-04   -0.95196E-05 11400   0.472E-02    0.375E-02
DAV:   5    -0.203231911038E+03    0.30901E-05   -0.46931E-05  7324   0.361E-02
  80 F= -.20323191E+03 E0= -.20073300E+03  d E =-.947808E-03
quench:  g(F)=  0.000E+00 g(S)=  0.000E+00 dE (1.order)= 0.000E+00
 bond charge predicted
       N       E                     dE             d eps       ncg     rms          rms(c)
DAV:   1    -0.203232858264E+03   -0.94414E-03   -0.11334E-01 10944   0.631E-01    0.640E-02
DAV:   2    -0.203233087148E+03   -0.22888E-03   -0.20902E-03 11172   0.109E-01    0.785E-02
DAV:   3    -0.203233069779E+03    0.17369E-04   -0.25968E-04 11528   0.823E-02    0.620E-02
DAV:   4    -0.203233040241E+03    0.29538E-04   -0.69295E-05  8816   0.435E-02    0.277E-02
DAV:   5    -0.203233043523E+03   -0.32819E-05   -0.36072E-05  7296   0.330E-02
  81 F= -.20323304E+03 E0= -.20073409E+03  d E =-.113249E-02
quench:  g(F)=  0.000E+00 g(S)=  0.000E+00 dE (1.order)= 0.000E+00
 bond charge predicted
       N       E                     dE             d eps       ncg     rms          rms(c)
DAV:   1    -0.203234094946E+03   -0.10547E-02   -0.15730E-01 10944   0.744E-01    0.855E-02
DAV:   2    -0.203236064349E+03   -0.19694E-02   -0.61516E-03 11632   0.294E-01    0.437E-01
DAV:   3    -0.203234344097E+03    0.17203E-02   -0.36385E-03 11664   0.268E-01    0.579E-02
DAV:   4    -0.203234344465E+03   -0.36784E-06   -0.19747E-04 11308   0.578E-02    0.482E-02
DAV:   5    -0.203234332079E+03    0.12386E-04   -0.72379E-05  9888   0.463E-02    0.325E-02
DAV:   6    -0.203234338160E+03   -0.60809E-05   -0.46836E-05  7112   0.357E-02
  82 F= -.20323434E+03 E0= -.20073590E+03  d E =-.129464E-02
quench:  g(F)=  0.000E+00 g(S)=  0.000E+00 dE (1.order)= 0.000E+00
 bond charge predicted
       N       E                     dE             d eps       ncg     rms          rms(c)
DAV:   1    -0.203235364977E+03   -0.10329E-02   -0.21974E-01 10944   0.879E-01    0.801E-02
DAV:   2    -0.203235785107E+03   -0.42013E-03   -0.40749E-03 11088   0.144E-01    0.892E-02
DAV:   3    -0.203235829120E+03   -0.44013E-04   -0.50870E-04 11676   0.108E-01    0.106E-01
DAV:   4    -0.203235791971E+03    0.37150E-04   -0.41885E-04 11060   0.909E-02    0.871E-02
DAV:   5    -0.203235731624E+03    0.60347E-04   -0.15471E-04  8780   0.583E-02    0.365E-02
DAV:   6    -0.203235736088E+03   -0.44640E-05   -0.58442E-05  7752   0.408E-02
  83 F= -.20323574E+03 E0= -.20073690E+03  d E =-.139793E-02
quench:  g(F)=  0.000E+00 g(S)=  0.000E+00 dE (1.order)= 0.000E+00
 bond charge predicted
       N       E                     dE             d eps       ncg     rms          rms(c)
DAV:   1    -0.203236732439E+03   -0.10008E-02   -0.25666E-01 10944   0.948E-01    0.871E-02
DAV:   2    -0.203237208524E+03   -0.47609E-03   -0.46618E-03 11180   0.161E-01    0.101E-01
DAV:   3    -0.203237218505E+03   -0.99804E-05   -0.57397E-04 11720   0.111E-01    0.101E-01
DAV:   4    -0.203237212882E+03    0.56224E-05   -0.43841E-04 11356   0.899E-02    0.973E-02
DAV:   5    -0.203237142916E+03    0.69966E-04   -0.17578E-04  9400   0.655E-02    0.427E-02
DAV:   6    -0.203237149446E+03   -0.65294E-05   -0.81465E-05 10152   0.481E-02
  84 F= -.20323715E+03 E0= -.20073898E+03  d E =-.141336E-02
quench:  g(F)=  0.000E+00 g(S)=  0.000E+00 dE (1.order)= 0.000E+00
 bond charge predicted
       N       E                     dE             d eps       ncg     rms          rms(c)
DAV:   1    -0.203237750721E+03   -0.60780E-03   -0.30222E-01 10944   0.102E+00    0.107E-01
DAV:   2    -0.203238396530E+03   -0.64581E-03   -0.63084E-03 11080   0.190E-01    0.138E-01
DAV:   3    -0.203238315726E+03    0.80804E-04   -0.76705E-04 11604   0.140E-01    0.910E-02
DAV:   4    -0.203238343806E+03   -0.28079E-04   -0.35974E-04 11480   0.957E-02    0.109E-01
DAV:   5    -0.203238269688E+03    0.74117E-04   -0.34283E-04  9996   0.840E-02    0.675E-02
DAV:   6    -0.203238254514E+03    0.15174E-04   -0.16290E-04 10216   0.594E-02    0.540E-02
DAV:   7    -0.203238243635E+03    0.10879E-04   -0.99563E-05 10264   0.496E-02    0.380E-02
DAV:   8    -0.203238229108E+03    0.14528E-04   -0.33274E-05  7008   0.330E-02    0.995E-03
DAV:   9    -0.203238228772E+03    0.33592E-06   -0.67773E-06  5772   0.121E-02
  85 F= -.20323823E+03 E0= -.20073984E+03  d E =-.107933E-02
quench:  g(F)=  0.000E+00 g(S)=  0.000E+00 dE (1.order)= 0.000E+00
 bond charge predicted
       N       E                     dE             d eps       ncg     rms          rms(c)
DAV:   1    -0.203238826668E+03   -0.59756E-03   -0.11895E-01 10944   0.609E-01    0.968E-02
DAV:   2    -0.203239043390E+03   -0.21672E-03   -0.26556E-03 11316   0.121E-01    0.949E-02
DAV:   3    -0.203239125558E+03   -0.82167E-04   -0.57419E-04 11888   0.113E-01    0.131E-01
DAV:   4    -0.203239020409E+03    0.10515E-03   -0.56096E-04 11748   0.103E-01    0.793E-02
DAV:   5    -0.203238989421E+03    0.30988E-04   -0.20316E-04 11520   0.740E-02    0.598E-02
[...]
DAV:   4    -0.203474539828E+03    0.42865E-05   -0.90532E-05  9252   0.439E-02
 369 F= -.20347454E+03 E0= -.20100289E+03  d E =-.117458E-02
quench:  g(F)=  0.000E+00 g(S)=  0.000E+00 dE (1.order)= 0.000E+00
 bond charge predicted
       N       E                     dE             d eps       ncg     rms          rms(c)
DAV:   1    -0.203475799653E+03   -0.12555E-02   -0.69762E-02 10944   0.473E-01    0.623E-02
DAV:   2    -0.203475978204E+03   -0.17855E-03   -0.14861E-03 11328   0.103E-01    0.939E-02
DAV:   3    -0.203475927450E+03    0.50754E-04   -0.27736E-04 11464   0.841E-02    0.548E-02
DAV:   4    -0.203475951329E+03   -0.23879E-04   -0.16342E-04  9576   0.566E-02    0.701E-02
DAV:   5    -0.203475920883E+03    0.30446E-04   -0.13639E-04  7124   0.549E-02    0.394E-02
DAV:   6    -0.203475915019E+03    0.58642E-05   -0.47673E-05  6636   0.381E-02
 370 F= -.20347592E+03 E0= -.20100417E+03  d E =-.137519E-02
quench:  g(F)=  0.000E+00 g(S)=  0.000E+00 dE (1.order)= 0.000E+00
 bond charge predicted
       N       E                     dE             d eps       ncg     rms          rms(c)
DAV:   1    -0.203477340478E+03   -0.14196E-02   -0.91240E-02 10944   0.540E-01    0.608E-02
DAV:   2    -0.203477527036E+03   -0.18656E-03   -0.18523E-03 11324   0.956E-02    0.688E-02
DAV:   3    -0.203477523718E+03    0.33178E-05   -0.25587E-04 11608   0.770E-02    0.622E-02
DAV:   4    -0.203477540777E+03   -0.17059E-04   -0.18099E-04  7864   0.619E-02    0.737E-02
DAV:   5    -0.203477494771E+03    0.46006E-04   -0.11472E-04  7108   0.498E-02    0.245E-02
DAV:   6    -0.203477502856E+03   -0.80848E-05   -0.33767E-05  6540   0.297E-02
 371 F= -.20347750E+03 E0= -.20100615E+03  d E =-.158784E-02
quench:  g(F)=  0.000E+00 g(S)=  0.000E+00 dE (1.order)= 0.000E+00
 bond charge predicted
       N       E                     dE             d eps       ncg     rms          rms(c)
DAV:   1    -0.203479054159E+03   -0.15594E-02   -0.11777E-01 10944   0.615E-01    0.682E-02
DAV:   2    -0.203479282931E+03   -0.22877E-03   -0.23547E-03 11320   0.107E-01    0.694E-02
DAV:   3    -0.203479293457E+03   -0.10526E-04   -0.27994E-04 11616   0.824E-02    0.732E-02
DAV:   4    -0.203479292342E+03    0.11141E-05   -0.22360E-04  9936   0.659E-02    0.688E-02
DAV:   5    -0.203479266098E+03    0.26245E-04   -0.13522E-04  7532   0.559E-02    0.436E-02
DAV:   6    -0.203479255282E+03    0.10816E-04   -0.44463E-05  6864   0.380E-02    0.261E-02
DAV:   7    -0.203479254067E+03    0.12146E-05   -0.23568E-05  6160   0.266E-02
 372 F= -.20347925E+03 E0= -.20100769E+03  d E =-.175121E-02
quench:  g(F)=  0.000E+00 g(S)=  0.000E+00 dE (1.order)= 0.000E+00
 bond charge predicted
       N       E                     dE             d eps       ncg     rms          rms(c)
DAV:   1    -0.203480905192E+03   -0.16499E-02   -0.13533E-01 10944   0.661E-01    0.710E-02
DAV:   2    -0.203481149257E+03   -0.24406E-03   -0.26624E-03 11324   0.107E-01    0.620E-02
DAV:   3    -0.203481157723E+03   -0.84659E-05   -0.21993E-04 11648   0.715E-02    0.625E-02
DAV:   4    -0.203481173801E+03   -0.16079E-04   -0.20755E-04  9552   0.652E-02    0.736E-02
DAV:   5    -0.203481137982E+03    0.35820E-04   -0.15235E-04  7520   0.573E-02    0.396E-02
DAV:   6    -0.203481139171E+03   -0.11889E-05   -0.58035E-05  7344   0.401E-02
 373 F= -.20348114E+03 E0= -.20100970E+03  d E =-.188510E-02
quench:  g(F)=  0.000E+00 g(S)=  0.000E+00 dE (1.order)= 0.000E+00
 bond charge predicted
       N       E                     dE             d eps       ncg     rms          rms(c)
DAV:   1    -0.203482529376E+03   -0.13914E-02   -0.16925E-01 10944   0.731E-01    0.863E-02
DAV:   2    -0.203482880021E+03   -0.35065E-03   -0.35020E-03 11316   0.128E-01    0.960E-02
DAV:   3    -0.203482914209E+03   -0.34188E-04   -0.50900E-04 11824   0.115E-01    0.110E-01
DAV:   4    -0.203482900178E+03    0.14031E-04   -0.48138E-04 11336   0.974E-02    0.104E-01
DAV:   5    -0.203482812645E+03    0.87532E-04   -0.22011E-04  9276   0.689E-02    0.369E-02
DAV:   6    -0.203482815170E+03   -0.25241E-05   -0.69957E-05  8384   0.460E-02
 374 F= -.20348282E+03 E0= -.20101159E+03  d E =-.167600E-02
quench:  g(F)=  0.000E+00 g(S)=  0.000E+00 dE (1.order)= 0.000E+00
 bond charge predicted
       N       E                     dE             d eps       ncg     rms          rms(c)
DAV:   1    -0.203483590041E+03   -0.77740E-03   -0.47011E-02 10944   0.352E-01    0.732E-02
DAV:   2    -0.203483708374E+03   -0.11833E-03   -0.13532E-03 11276   0.102E-01    0.874E-02
DAV:   3    -0.203483670783E+03    0.37591E-04   -0.27882E-04 11688   0.867E-02    0.644E-02
DAV:   4    -0.203483705446E+03   -0.34663E-04   -0.26386E-04 10308   0.721E-02    0.906E-02
DAV:   5    -0.203483649374E+03    0.56072E-04   -0.23064E-04  9940   0.689E-02    0.453E-02
DAV:   6    -0.203483631260E+03    0.18114E-04   -0.74069E-05  9304   0.469E-02    0.268E-02
DAV:   7    -0.203483627318E+03    0.39424E-05   -0.24366E-05  6708   0.278E-02
 375 F= -.20348363E+03 E0= -.20101266E+03  d E =-.812148E-03
quench:  g(F)=  0.000E+00 g(S)=  0.000E+00 dE (1.order)= 0.000E+00
 bond charge predicted
       N       E                     dE             d eps       ncg     rms          rms(c)
DAV:   1    -0.203483921615E+03   -0.29036E-03   -0.46590E-03 10968   0.116E-01    0.198E-02
DAV:   2    -0.203483938392E+03   -0.16777E-04   -0.12922E-04 10980   0.306E-02    0.326E-02
DAV:   3    -0.203483933800E+03    0.45925E-05   -0.39136E-05  6648   0.284E-02    0.231E-02
DAV:   4    -0.203483933507E+03    0.29266E-06   -0.21758E-05  6192   0.219E-02
 376 F= -.20348393E+03 E0= -.20101274E+03  d E =-.306189E-03
quench:  g(F)=  0.000E+00 g(S)=  0.000E+00 dE (1.order)= 0.000E+00
 bond charge predicted
       N       E                     dE             d eps       ncg     rms          rms(c)
DAV:   1    -0.203484367117E+03   -0.43332E-03   -0.10447E-02 10944   0.180E-01    0.273E-02
DAV:   2    -0.203484402707E+03   -0.35590E-04   -0.26014E-04 11368   0.494E-02    0.474E-02
DAV:   3    -0.203484388706E+03    0.14001E-04   -0.63882E-05  7636   0.427E-02    0.301E-02
DAV:   4    -0.203484388702E+03    0.35652E-08   -0.40907E-05  6408   0.285E-02
 377 F= -.20348439E+03 E0= -.20101344E+03  d E =-.455195E-03
quench:  g(F)=  0.000E+00 g(S)=  0.000E+00 dE (1.order)= 0.000E+00
 bond charge predicted
       N       E                     dE             d eps       ncg     rms          rms(c)
DAV:   1    -0.203484963722E+03   -0.57502E-03   -0.14161E-02 10944   0.214E-01    0.309E-02
DAV:   2    -0.203485020676E+03   -0.56954E-04   -0.36024E-04 11384   0.639E-02    0.656E-02
DAV:   3    -0.203484996465E+03    0.24211E-04   -0.14309E-04  9904   0.543E-02    0.406E-02
DAV:   4    -0.203484987723E+03    0.87414E-05   -0.49491E-05  6572   0.330E-02
 378 F= -.20348499E+03 E0= -.20101383E+03  d E =-.599021E-03
quench:  g(F)=  0.000E+00 g(S)=  0.000E+00 dE (1.order)= 0.000E+00
 bond charge predicted
       N       E                     dE             d eps       ncg     rms          rms(c)
DAV:   1    -0.203485736514E+03   -0.74005E-03   -0.23183E-02 10944   0.273E-01    0.396E-02
DAV:   2    -0.203485830260E+03   -0.93745E-04   -0.55721E-04 11360   0.800E-02    0.816E-02
DAV:   3    -0.203485783480E+03    0.46779E-04   -0.16580E-04 11280   0.676E-02    0.442E-02
DAV:   4    -0.203485779462E+03    0.40180E-05   -0.78585E-05  6800   0.396E-02
 379 F= -.20348578E+03 E0= -.20101503E+03  d E =-.791739E-03
quench:  g(F)=  0.000E+00 g(S)=  0.000E+00 dE (1.order)= 0.000E+00
 bond charge predicted
       N       E                     dE             d eps       ncg     rms          rms(c)
DAV:   1    -0.203486689581E+03   -0.90610E-03   -0.35365E-02 10944   0.336E-01    0.492E-02
DAV:   2    -0.203486822011E+03   -0.13243E-03   -0.86221E-04 11352   0.955E-02    0.984E-02
DAV:   3    -0.203486769927E+03    0.52083E-04   -0.32715E-04 11592   0.821E-02    0.635E-02
DAV:   4    -0.203486750251E+03    0.19677E-04   -0.11973E-04  9192   0.509E-02    0.404E-02
DAV:   5    -0.203486746388E+03    0.38627E-05   -0.46498E-05  6960   0.369E-02
 380 F= -.20348675E+03 E0= -.20101588E+03  d E =-.966926E-03
quench:  g(F)=  0.000E+00 g(S)=  0.000E+00 dE (1.order)= 0.000E+00
 bond charge predicted
       N       E                     dE             d eps       ncg     rms          rms(c)
DAV:   1    -0.203487815273E+03   -0.10650E-02   -0.49004E-02 10944   0.394E-01    0.493E-02
DAV:   2    -0.203487907279E+03   -0.92006E-04   -0.96164E-04 11344   0.689E-02    0.463E-02
DAV:   3    -0.203487918727E+03   -0.11448E-04   -0.12649E-04 11464   0.588E-02    0.550E-02
DAV:   4    -0.203487915558E+03    0.31688E-05   -0.10006E-04  7152   0.492E-02    0.511E-02
DAV:   5    -0.203487898526E+03    0.17033E-04   -0.72172E-05  6692   0.388E-02    0.285E-02
DAV:   6    -0.203487897229E+03    0.12963E-05   -0.28818E-05  6284   0.270E-02
 381 F= -.20348790E+03 E0= -.20101688E+03  d E =-.115084E-02
quench:  g(F)=  0.000E+00 g(S)=  0.000E+00 dE (1.order)= 0.000E+00
 bond charge predicted
       N       E                     dE             d eps       ncg     rms          rms(c)
DAV:   1    -0.203489105752E+03   -0.12072E-02   -0.66788E-02 10944   0.461E-01    0.508E-02
DAV:   2    -0.203489223817E+03   -0.11806E-03   -0.13002E-03 11324   0.704E-02    0.371E-02
DAV:   3    -0.203489255205E+03   -0.31388E-04   -0.13444E-04 10904   0.534E-02    0.657E-02
DAV:   4    -0.203489230725E+03    0.24480E-04   -0.12931E-04  7052   0.517E-02    0.398E-02
DAV:   5    -0.203489220226E+03    0.10498E-04   -0.44837E-05  6556   0.343E-02    0.217E-02
DAV:   6    -0.203489222892E+03   -0.26655E-05   -0.20240E-05  6136   0.241E-02
 382 F= -.20348922E+03 E0= -.20101860E+03  d E =-.132566E-02
quench:  g(F)=  0.000E+00 g(S)=  0.000E+00 dE (1.order)= 0.000E+00
 bond charge predicted
       N       E                     dE             d eps       ncg     rms          rms(c)
DAV:   1    -0.203490553963E+03   -0.13337E-02   -0.82970E-02 10944   0.514E-01    0.563E-02
DAV:   2    -0.203490705985E+03   -0.15202E-03   -0.15968E-03 11328   0.845E-02    0.533E-02
DAV:   3    -0.203490719787E+03   -0.13802E-04   -0.17349E-04 11596   0.644E-02    0.627E-02
DAV:   4    -0.203490707901E+03    0.11886E-04   -0.12340E-04  7728   0.506E-02    0.485E-02
DAV:   5    -0.203490699717E+03    0.81838E-05   -0.85909E-05  6976   0.436E-02
 383 F= -.20349070E+03 E0= -.20102000E+03  d E =-.147683E-02
quench:  g(F)=  0.000E+00 g(S)=  0.000E+00 dE (1.order)= 0.000E+00
 bond charge predicted
       N       E                     dE             d eps       ncg     rms          rms(c)
DAV:   1    -0.203492106501E+03   -0.13986E-02   -0.10481E-01 10944   0.578E-01    0.720E-02
DAV:   2    -0.203492326295E+03   -0.21979E-03   -0.21050E-03 11328   0.107E-01    0.818E-02
DAV:   3    -0.203492329840E+03   -0.35453E-05   -0.33603E-04 11568   0.946E-02    0.813E-02
DAV:   4    -0.203492341071E+03   -0.11231E-04   -0.28980E-04  9876   0.784E-02    0.874E-02
DAV:   5    -0.203492281837E+03    0.59234E-04   -0.17062E-04  7972   0.597E-02    0.372E-02
DAV:   6    -0.203492280023E+03    0.18145E-05   -0.49802E-05  7096   0.374E-02
 384 F= -.20349228E+03 E0= -.20102153E+03  d E =-.158031E-02
quench:  g(F)=  0.000E+00 g(S)=  0.000E+00 dE (1.order)= 0.000E+00
 bond charge predicted
       N       E                     dE             d eps       ncg     rms          rms(c)
DAV:   1    -0.203493677212E+03   -0.13954E-02   -0.10611E-01 10944   0.580E-01    0.704E-02
DAV:   2    -0.203493885427E+03   -0.20822E-03   -0.21823E-03 11324   0.110E-01    0.792E-02
DAV:   3    -0.203493856701E+03    0.28726E-04   -0.24479E-04 11664   0.805E-02    0.524E-02
DAV:   4    -0.203493848123E+03    0.85785E-05   -0.91547E-05  9724   0.471E-02
 385 F= -.20349385E+03 E0= -.20102318E+03  d E =-.156810E-02
quench:  g(F)=  0.000E+00 g(S)=  0.000E+00 dE (1.order)= 0.000E+00
 bond charge predicted
       N       E                     dE             d eps       ncg     rms          rms(c)
DAV:   1    -0.203494646816E+03   -0.79011E-03   -0.99707E-02 10944   0.541E-01    0.915E-02
DAV:   2    -0.203495785037E+03   -0.11382E-02   -0.43356E-03 11904   0.229E-01    0.331E-01
DAV:   3    -0.203494850206E+03    0.93483E-03   -0.23350E-03 11992   0.213E-01    0.842E-02
DAV:   4    -0.203494847174E+03    0.30323E-05   -0.31116E-04 11868   0.885E-02    0.827E-02
DAV:   5    -0.203494798643E+03    0.48532E-04   -0.13950E-04 11544   0.637E-02    0.406E-02
DAV:   6    -0.203494787071E+03    0.11572E-04   -0.63710E-05  9416   0.463E-02    0.261E-02
DAV:   7    -0.203494784586E+03    0.24848E-05   -0.26028E-05  6784   0.271E-02
 386 F= -.20349478E+03 E0= -.20102433E+03  d E =-.936463E-03
quench:  g(F)=  0.000E+00 g(S)=  0.000E+00 dE (1.order)= 0.000E+00
 bond charge predicted
       N       E                     dE             d eps       ncg     rms          rms(c)
DAV:   1    -0.203495115795E+03   -0.32872E-03   -0.38458E-03 10952   0.982E-02    0.236E-02
DAV:   2    -0.203495128985E+03   -0.13190E-04   -0.12604E-04 11168   0.333E-02    0.328E-02
DAV:   3    -0.203495125240E+03    0.37457E-05   -0.39289E-05  6812   0.316E-02    0.272E-02
DAV:   4    -0.203495123966E+03    0.12737E-05   -0.32384E-05  6240   0.250E-02
 387 F= -.20349512E+03 E0= -.20102456E+03  d E =-.339380E-03
quench:  g(F)=  0.000E+00 g(S)=  0.000E+00 dE (1.order)= 0.000E+00
 bond charge predicted
       N       E                     dE             d eps       ncg     rms          rms(c)
DAV:   1    -0.203495544027E+03   -0.41879E-03   -0.79905E-03 10944   0.150E-01    0.309E-02
DAV:   2    -0.203495562339E+03   -0.18312E-04   -0.22863E-04 11344   0.440E-02    0.384E-02
DAV:   3    -0.203495554818E+03    0.75212E-05   -0.48242E-05  7440   0.370E-02    0.274E-02
DAV:   4    -0.203495560772E+03   -0.59539E-05   -0.47272E-05  6576   0.300E-02
 388 F= -.20349556E+03 E0= -.20102503E+03  d E =-.436806E-03
quench:  g(F)=  0.000E+00 g(S)=  0.000E+00 dE (1.order)= 0.000E+00
 bond charge predicted
       N       E                     dE             d eps       ncg     rms          rms(c)
DAV:   1    -0.203496056963E+03   -0.50214E-03   -0.11352E-02 10944   0.191E-01    0.299E-02
DAV:   2    -0.203496141622E+03   -0.84659E-04   -0.37854E-04 11440   0.746E-02    0.862E-02
DAV:   3    -0.203496085917E+03    0.55705E-04   -0.19171E-04  9956   0.654E-02    0.420E-02
DAV:   4    -0.203496073076E+03    0.12841E-04   -0.51158E-05  6608   0.320E-02    0.196E-02
DAV:   5    -0.203496071916E+03    0.11601E-05   -0.10456E-05  5924   0.156E-02
 389 F= -.20349607E+03 E0= -.20102581E+03  d E =-.511144E-03
quench:  g(F)=  0.000E+00 g(S)=  0.000E+00 dE (1.order)= 0.000E+00
 bond charge predicted
       N       E                     dE             d eps       ncg     rms          rms(c)
DAV:   1    -0.203496725003E+03   -0.65193E-03   -0.18455E-02 10944   0.241E-01    0.302E-02
DAV:   2    -0.203496762796E+03   -0.37794E-04   -0.36773E-04 11368   0.442E-02    0.340E-02
DAV:   3    -0.203496765955E+03   -0.31585E-05   -0.70029E-05  7144   0.396E-02    0.387E-02
DAV:   4    -0.203496765003E+03    0.95177E-06   -0.53284E-05  6416   0.323E-02
 390 F= -.20349677E+03 E0= -.20102662E+03  d E =-.693087E-03
quench:  g(F)=  0.000E+00 g(S)=  0.000E+00 dE (1.order)= 0.000E+00
 bond charge predicted
       N       E                     dE             d eps       ncg     rms          rms(c)
DAV:   1    -0.203497559219E+03   -0.79326E-03   -0.27087E-02 10944   0.291E-01    0.403E-02
DAV:   2    -0.203497648677E+03   -0.89459E-04   -0.60031E-04 11368   0.712E-02    0.745E-02
DAV:   3    -0.203497617503E+03    0.31175E-04   -0.17872E-04 10580   0.643E-02    0.481E-02
DAV:   4    -0.203497612582E+03    0.49206E-05   -0.81468E-05  6780   0.405E-02
 391 F= -.20349761E+03 E0= -.20102783E+03  d E =-.847579E-03
quench:  g(F)=  0.000E+00 g(S)=  0.000E+00 dE (1.order)= 0.000E+00
 bond charge predicted
       N       E                     dE             d eps       ncg     rms          rms(c)
DAV:   1    -0.203498551864E+03   -0.93436E-03   -0.38026E-02 10944   0.344E-01    0.502E-02
DAV:   2    -0.203498659224E+03   -0.10736E-03   -0.83834E-04 11336   0.864E-02    0.788E-02
DAV:   3    -0.203498627869E+03    0.31355E-04   -0.22396E-04 11500   0.728E-02    0.551E-02
DAV:   4    -0.203498629918E+03   -0.20492E-05   -0.12386E-04  7672   0.497E-02    0.524E-02
DAV:   5    -0.203498614793E+03    0.15125E-04   -0.71353E-05  6912   0.432E-02    0.315E-02
DAV:   6    -0.203498608313E+03    0.64797E-05   -0.22373E-05  6600   0.295E-02
 392 F= -.20349861E+03 E0= -.20102860E+03  d E =-.995731E-03
quench:  g(F)=  0.000E+00 g(S)=  0.000E+00 dE (1.order)= 0.000E+00
 bond charge predicted
       N       E                     dE             d eps       ncg     rms          rms(c)
DAV:   1    -0.203499677330E+03   -0.10625E-02   -0.51019E-02 10944   0.398E-01    0.471E-02
DAV:   2    -0.203499780790E+03   -0.10346E-03   -0.10309E-03 11316   0.737E-02    0.533E-02
DAV:   3    -0.203499771294E+03    0.94961E-05   -0.13436E-04 11632   0.580E-02    0.397E-02
DAV:   4    -0.203499785889E+03   -0.14595E-04   -0.88490E-05  6984   0.437E-02    0.542E-02
DAV:   5    -0.203499762143E+03    0.23746E-04   -0.69142E-05  6792   0.386E-02    0.211E-02
DAV:   6    -0.203499764402E+03   -0.22595E-05   -0.21557E-05  6116   0.235E-02
 393 F= -.20349976E+03 E0= -.20103001E+03  d E =-.115609E-02
quench:  g(F)=  0.000E+00 g(S)=  0.000E+00 dE (1.order)= 0.000E+00
 bond charge predicted
       N       E                     dE             d eps       ncg     rms          rms(c)
DAV:   1    -0.203500923031E+03   -0.11609E-02   -0.65660E-02 10944   0.454E-01    0.523E-02
DAV:   2    -0.203501055926E+03   -0.13290E-03   -0.12919E-03 11320   0.812E-02    0.605E-02
DAV:   3    -0.203501049537E+03    0.63888E-05   -0.16037E-04 11564   0.650E-02    0.511E-02
DAV:   4    -0.203501033964E+03    0.15573E-04   -0.53987E-05  7116   0.377E-02    0.267E-02
DAV:   5    -0.203501045696E+03   -0.11732E-04   -0.56589E-05  6824   0.363E-02    0.438E-02
DAV:   6    -0.203501035774E+03    0.99218E-05   -0.55775E-05  6452   0.348E-02
 394 F= -.20350104E+03 E0= -.20103132E+03  d E =-.127137E-02
quench:  g(F)=  0.000E+00 g(S)=  0.000E+00 dE (1.order)= 0.000E+00
 bond charge predicted
       N       E                     dE             d eps       ncg     rms          rms(c)
DAV:   1    -0.203502271294E+03   -0.12256E-02   -0.79195E-02 10944   0.501E-01    0.584E-02
DAV:   2    -0.203502431014E+03   -0.15972E-03   -0.15765E-03 11324   0.898E-02    0.671E-02
DAV:   3    -0.203502435580E+03   -0.45663E-05   -0.24723E-04 11668   0.748E-02    0.679E-02
DAV:   4    -0.203502435266E+03    0.31438E-06   -0.18646E-04  7700   0.621E-02    0.645E-02
DAV:   5    -0.203502400353E+03    0.34913E-04   -0.90831E-05  7128   0.463E-02    0.234E-02
DAV:   6    -0.203502406934E+03   -0.65811E-05   -0.29634E-05  6464   0.290E-02
 395 F= -.20350241E+03 E0= -.20103301E+03  d E =-.137116E-02
quench:  g(F)=  0.000E+00 g(S)=  0.000E+00 dE (1.order)= 0.000E+00
 bond charge predicted
       N       E                     dE             d eps       ncg     rms          rms(c)
DAV:   1    -0.203503638997E+03   -0.12386E-02   -0.10098E-01 10944   0.567E-01    0.655E-02
DAV:   2    -0.203503832696E+03   -0.19370E-03   -0.19708E-03 11340   0.962E-02    0.652E-02
DAV:   3    -0.203503844621E+03   -0.11925E-04   -0.25098E-04 11596   0.795E-02    0.706E-02
DAV:   4    -0.203503831973E+03    0.12648E-04   -0.16340E-04  9112   0.581E-02    0.590E-02
DAV:   5    -0.203503814781E+03    0.17192E-04   -0.11235E-04  7052   0.489E-02    0.391E-02
DAV:   6    -0.203503809069E+03    0.57121E-05   -0.44342E-05  6644   0.363E-02
 396 F= -.20350381E+03 E0= -.20103415E+03  d E =-.140214E-02
quench:  g(F)=  0.000E+00 g(S)=  0.000E+00 dE (1.order)= 0.000E+00
 bond charge predicted
slurmstepd-c0: error: *** JOB 1512294 ON c0 CANCELLED AT 2025-12-09T10:22:52 ***
