 vasp.5.4.4.18Apr17-6-g9f103f2a35 (build Aug 09 2024 17:42:55) complex          
  
 executed on             LinuxIFC date 2025.12.05  14:46:29
 running on   64 total cores
 each image running on   16 cores
 distrk:  each k-point on   16 cores,    1 groups
 distr:  one band on NCORES_PER_BAND=   2 cores,    8 groups


--------------------------------------------------------------------------------------------------------


 INCAR:
 POTCAR:    PAW_PBE Pd 04Jan2005                  
 POTCAR:    PAW_PBE C 08Apr2002                   
 POTCAR:    PAW_PBE O 08Apr2002                   
 POTCAR:    PAW_PBE Pd 04Jan2005                  
  local pseudopotential read in
  partial core-charges read in
  partial kinetic energy density read in
  atomic valenz-charges read in
  non local Contribution for L=           2  read in
    real space projection operators read in
  non local Contribution for L=           2  read in
    real space projection operators read in
  non local Contribution for L=           0  read in
    real space projection operators read in
  non local Contribution for L=           0  read in
    real space projection operators read in
  non local Contribution for L=           1  read in
    real space projection operators read in
  non local Contribution for L=           1  read in
    real space projection operators read in
    PAW grid and wavefunctions read in
 
   number of l-projection  operators is LMAX  =           6
   number of lm-projection operators is LMMAX =          18
 
 POTCAR:    PAW_PBE C 08Apr2002                   
  local pseudopotential read in
  partial core-charges read in
  partial kinetic energy density read in
  atomic valenz-charges read in
  non local Contribution for L=           0  read in
    real space projection operators read in
  non local Contribution for L=           0  read in
    real space projection operators read in
  non local Contribution for L=           1  read in
    real space projection operators read in
  non local Contribution for L=           1  read in
    real space projection operators read in
    PAW grid and wavefunctions read in
 
   number of l-projection  operators is LMAX  =           4
   number of lm-projection operators is LMMAX =           8
 
 POTCAR:    PAW_PBE O 08Apr2002                   
  local pseudopotential read in
  partial core-charges read in
  partial kinetic energy density read in
  kinetic energy density of atom read in
  atomic valenz-charges read in
  non local Contribution for L=           0  read in
    real space projection operators read in
  non local Contribution for L=           0  read in
    real space projection operators read in
  non local Contribution for L=           1  read in
    real space projection operators read in
  non local Contribution for L=           1  read in
    real space projection operators read in
    PAW grid and wavefunctions read in
 
   number of l-projection  operators is LMAX  =           4
   number of lm-projection operators is LMMAX =           8
 
 Optimization of the real space projectors (new method)

 maximal supplied QI-value         = 14.36
 optimisation between [QCUT,QGAM] = [  9.77, 19.68] = [ 26.71,108.41] Ry 
 Optimized for a Real-space Cutoff    1.52 Angstroem

   l    n(q)    QCUT    max X(q) W(low)/X(q) W(high)/X(q)  e(spline) 
   2      8     9.766    59.108    0.18E-03    0.12E-03    0.98E-07
   2      8     9.766    58.101    0.18E-03    0.12E-03    0.10E-06
   0      9     9.766   102.235    0.37E-04    0.68E-04    0.73E-07
   0      9     9.766    58.388    0.33E-04    0.64E-04    0.69E-07
   1      8     9.766    22.191    0.23E-03    0.61E-04    0.11E-06
   1      8     9.766    15.590    0.19E-03    0.52E-04    0.93E-07
 Optimization of the real space projectors (new method)

 maximal supplied QI-value         = 25.13
 optimisation between [QCUT,QGAM] = [  9.80, 19.60] = [ 26.90,107.62] Ry 
 Optimized for a Real-space Cutoff    1.35 Angstroem

   l    n(q)    QCUT    max X(q) W(low)/X(q) W(high)/X(q)  e(spline) 
   0      8     9.802   115.676    0.45E-03    0.67E-03    0.24E-06
   0      8     9.802    87.132    0.44E-03    0.67E-03    0.24E-06
   1      7     9.802     4.429    0.38E-03    0.18E-03    0.24E-06
   1      7     9.802     2.733    0.25E-03    0.72E-04    0.26E-06
 Optimization of the real space projectors (new method)

 maximal supplied QI-value         = 24.76
 optimisation between [QCUT,QGAM] = [  9.65, 19.56] = [ 26.10,107.10] Ry 
 Optimized for a Real-space Cutoff    1.44 Angstroem

   l    n(q)    QCUT    max X(q) W(low)/X(q) W(high)/X(q)  e(spline) 
   0      8     9.655    20.381    0.19E-03    0.21E-03    0.36E-06
   0      8     9.655    15.268    0.21E-03    0.24E-03    0.37E-06
   1      8     9.655     5.964    0.43E-03    0.39E-03    0.31E-06
   1      8     9.655     5.382    0.36E-03    0.33E-03    0.28E-06
  PAW_PBE Pd 04Jan2005                  :
 energy of atom  1       EATOM= -809.7530
 kinetic energy error for atom=    0.0177 (will be added to EATOM!!)
  PAW_PBE C 08Apr2002                   :
 energy of atom  2       EATOM= -147.1560
 kinetic energy error for atom=    0.0545 (will be added to EATOM!!)
  PAW_PBE O 08Apr2002                   :
 energy of atom  3       EATOM= -432.3788
 kinetic energy error for atom=    0.2342 (will be added to EATOM!!)
 
 
 POSCAR: initial\(6)                             
  positions in direct lattice
  No initial velocities read in
 exchange correlation table for  LEXCH =        8
   RHO(1)=    0.500       N(1)  =     2000
   RHO(2)=  100.500       N(2)  =     4000

 VTST: version 3.2, (02/03/18)

 CHAIN: initializing optimizer
 
 OPT: Using Quick-Min optimizer
 OPT: QM, Init
 OPT: QM, MAXMOVE       0.200000
 OPT: QM, TIMESTEP      0.100000
 
 CHAIN: Read ICHAIN            0
 CHAIN: Running the NEB
 NEB:          SPRING     -5.000000
 NEB:          LCLIMB      T
 NEB:     LTANGENTOLD      F
 NEB:           LDNEB      F
 NEB:        LDNEBORG      F
 NEB:        LNEBCELL      F
 NEB:          EFIRST      0.000000
 NEB:           ELAST      0.000000
 
 POSCAR: initial\(7)                             
  positions in direct lattice
  velocities in cartesian coordinates
 
 POSCAR: final_re                                
  positions in direct lattice
  velocities in cartesian coordinates
 


--------------------------------------------------------------------------------------------------------


 ion  position               nearest neighbor table
   1  1.000  0.001  0.434-  37 2.36   9 2.77   3 2.77  27 2.77   7 2.77   4 2.77  10 2.77  13 2.77
                            25 2.77  19 2.77
   2  0.111  0.223  0.160-   3 2.77   9 2.77  31 2.77  32 2.77  12 2.77  28 2.77   5 2.77   8 2.77
                            26 2.77  20 2.77  14 2.77  11 2.77
   3  0.222  0.112  0.297-   1 2.77   4 2.77   2 2.77   5 2.77  13 2.77  20 2.77   9 2.77  21 2.77
                            27 2.77  12 2.77  15 2.77   6 2.77
   4  0.333  0.001  0.434-  39 2.17  37 2.42   3 2.77  21 2.77   6 2.77   1 2.77  13 2.77  19 2.77
                            22 2.77  16 2.77   7 2.77
   5  0.444  0.223  0.160-  32 2.77   3 2.77  29 2.77  15 2.77   6 2.77  33 2.77   2 2.77  20 2.77
                            23 2.77   8 2.77  17 2.77  14 2.77
   6  0.555  0.112  0.297-   7 2.77   8 2.77  16 2.77  23 2.77   4 2.77   5 2.77   9 2.77  24 2.77
                            15 2.77  18 2.77  21 2.77   3 2.77
   7  0.666  0.001  0.434-   6 2.77   9 2.77  24 2.77   1 2.77  16 2.77  10 2.77  25 2.77  22 2.77
                             4 2.77
   8  0.778  0.223  0.160-  33 2.77  31 2.77   6 2.77   9 2.77  18 2.77  30 2.77   2 2.77  26 2.77
                            23 2.77  11 2.77   5 2.77  17 2.77
   9  0.889  0.112  0.297-   1 2.77   7 2.77   2 2.77   8 2.77  10 2.77  26 2.77   3 2.77   6 2.77
                            27 2.77  24 2.77  12 2.77  18 2.77
  10  1.000  0.334  0.434-  38 2.53  18 2.77  12 2.77   9 2.77  16 2.77  13 2.77   1 2.77   7 2.77
                            22 2.77  19 2.77
  11  0.111  0.557  0.160-  34 2.77  35 2.77  21 2.77  18 2.77  12 2.77  31 2.77  14 2.77  17 2.77
                            23 2.77  20 2.77   8 2.77   2 2.77
  12  0.222  0.446  0.297-  10 2.77  13 2.77   2 2.77  14 2.77  11 2.77  22 2.77  18 2.77   9 2.77
                             3 2.77  15 2.77  21 2.77  24 2.77
  13  0.333  0.334  0.434-  38 2.06  37 2.62  12 2.77   3 2.77  15 2.77  10 2.77   4 2.77   1 2.77
                            16 2.77  22 2.77  25 2.77
  14  0.444  0.557  0.160-  35 2.77  12 2.77  24 2.77  36 2.77  32 2.77  11 2.77  23 2.77  15 2.77
                            26 2.77   2 2.77  17 2.77   5 2.77
  15  0.555  0.446  0.297-  16 2.77  17 2.77   5 2.77  13 2.77  25 2.77  18 2.77   6 2.77  14 2.77
                             3 2.77  27 2.77  12 2.77  24 2.77
  16  0.666  0.334  0.434-  18 2.77  15 2.77   6 2.77  10 2.77   7 2.77   4 2.77  19 2.77  13 2.77
                            25 2.77
  17  0.778  0.557  0.160-  36 2.77  34 2.77  27 2.77  15 2.77  18 2.77  33 2.77  11 2.77  26 2.77
                            20 2.77  14 2.77   5 2.77   8 2.77
  18  0.889  0.446  0.297-  10 2.77  16 2.77   8 2.77  11 2.77  17 2.77  19 2.77  12 2.77  15 2.77
                             9 2.77   6 2.77  21 2.77  27 2.77
  19  1.000  0.668  0.434-  21 2.77  27 2.77  18 2.77  25 2.77  22 2.77   4 2.77   1 2.77  16 2.77
                            10 2.77
  20  0.111  0.890  0.160-  21 2.77  27 2.77  29 2.77  28 2.77   3 2.77  34 2.77  23 2.77  26 2.77
                            11 2.77  17 2.77   5 2.77   2 2.77
  21  0.222  0.779  0.297-  19 2.77  22 2.77  20 2.77  23 2.77   4 2.77  11 2.77  27 2.77   3 2.77
                             6 2.77  18 2.77  24 2.77  12 2.77
  22  0.333  0.668  0.434-  21 2.77  24 2.77  12 2.77  19 2.77   4 2.77   7 2.77  10 2.77  25 2.77
                            13 2.77
  23  0.444  0.890  0.160-  21 2.77  29 2.77  35 2.77   6 2.77  24 2.77  30 2.77  20 2.77  11 2.77
                            14 2.77   5 2.77   8 2.77  26 2.77
  24  0.555  0.779  0.297-  25 2.77  26 2.77   7 2.77  14 2.77  22 2.77  23 2.77  27 2.77   6 2.77
                             9 2.77  21 2.77  12 2.77  15 2.77
  25  0.666  0.668  0.434-  27 2.77  24 2.77  15 2.77  19 2.77   1 2.77   7 2.77  22 2.77  13 2.77
                            16 2.77
  26  0.778  0.890  0.160-  24 2.77  27 2.77  28 2.77  30 2.77   9 2.77  36 2.77  20 2.77  17 2.77
                             2 2.77   8 2.77  14 2.77  23 2.77
  27  0.889  0.779  0.297-  19 2.77  25 2.77  20 2.77  26 2.77   1 2.77  17 2.77  21 2.77  24 2.77
                             9 2.77   3 2.77  15 2.77  18 2.77
  28  1.000  0.001  0.023-  26 2.77  20 2.77   2 2.77  30 2.77  29 2.77  31 2.77  32 2.77  36 2.77
                            34 2.77
  29  0.333  0.001  0.023-  20 2.77  23 2.77   5 2.77  28 2.77  32 2.77  34 2.77  35 2.77  33 2.77
                            30 2.77
  30  0.666  0.001  0.023-  26 2.77   8 2.77  23 2.77  28 2.77  31 2.77  33 2.77  36 2.77  35 2.77
                            29 2.77
  31  1.000  0.334  0.023-   2 2.77   8 2.77  11 2.77  33 2.77  32 2.77  28 2.77  30 2.77  35 2.77
                            34 2.77
  32  0.333  0.334  0.023-   5 2.77   2 2.77  14 2.77  31 2.77  29 2.77  28 2.77  33 2.77  35 2.77
                            36 2.77
  33  0.666  0.334  0.023-   8 2.77   5 2.77  17 2.77  31 2.77  30 2.77  29 2.77  34 2.77  32 2.77
                            36 2.77
  34  1.000  0.668  0.023-  11 2.77  17 2.77  20 2.77  36 2.77  35 2.77  28 2.77  29 2.77  33 2.77
                            31 2.77
  35  0.333  0.668  0.023-  14 2.77  11 2.77  23 2.77  34 2.77  29 2.77  30 2.77  31 2.77  36 2.77
                            32 2.77
  36  0.666  0.668  0.023-  17 2.77  26 2.77  14 2.77  34 2.77  28 2.77  30 2.77  35 2.77  32 2.77
                            33 2.77
  37  0.199  0.079  0.547-  39 1.71  38 1.94   1 2.36   4 2.42  13 2.62
  38  0.203  0.314  0.543-  37 1.94  13 2.06  10 2.53
  39  0.255  0.908  0.558-  37 1.71   4 2.17
 

IMPORTANT INFORMATION: All symmetrisations will be switched off!
NOSYMM: (Re-)initialisation of all symmetry stuff for point group C_1.

 
 
 KPOINTS: Automatic mesh                          

Automatic generation of k-mesh.
Space group operators:
 irot       det(A)        alpha          n_x          n_y          n_z        tau_x        tau_y        tau_z
    1     1.000000     0.000000     1.000000     0.000000     0.000000     0.000000     0.000000     0.000000
 
 Subroutine IBZKPT returns following result:
 ===========================================
 
 Found     24 irreducible k-points:
 
 Following reciprocal coordinates:
            Coordinates               Weight
  0.125000  0.125000  0.000000     16.000000
  0.250000 -0.125000  0.000000     16.000000
  0.125000 -0.250000  0.000000     16.000000
  0.375000  0.125000  0.000000     16.000000
  0.500000 -0.375000  0.000000     16.000000
  0.125000  0.500000  0.000000     16.000000
 -0.125000 -0.375000  0.000000     16.000000
  0.375000  0.500000  0.000000     16.000000
  0.500000 -0.125000  0.000000     16.000000
 -0.375000  0.125000  0.000000     16.000000
 -0.250000  0.375000  0.000000     16.000000
  0.125000  0.250000  0.000000     16.000000
 -0.125000  0.375000  0.000000     16.000000
 -0.375000  0.250000  0.000000     16.000000
 -0.250000 -0.125000  0.000000     16.000000
 -0.125000  0.125000  0.000000     16.000000
  0.000000  0.125000  0.000000     16.000000
  0.125000  0.000000  0.000000     16.000000
  0.375000  0.375000  0.000000     16.000000
 -0.250000 -0.375000  0.000000     16.000000
  0.375000  0.250000  0.000000     16.000000
 -0.375000  0.375000  0.000000     16.000000
  0.000000  0.375000  0.000000     16.000000
  0.375000  0.000000  0.000000     16.000000
 
 Following cartesian coordinates:
            Coordinates               Weight
  0.015042  0.026054  0.000000     16.000000
  0.030085  0.000000  0.000000     16.000000
  0.015042 -0.026054  0.000000     16.000000
  0.045127  0.043423  0.000000     16.000000
  0.060169 -0.017369  0.000000     16.000000
  0.015042  0.078162  0.000000     16.000000
 -0.015042 -0.060793  0.000000     16.000000
  0.045127  0.095531  0.000000     16.000000
  0.060169  0.017369  0.000000     16.000000
 -0.045127 -0.008685  0.000000     16.000000
 -0.030085  0.034739  0.000000     16.000000
  0.015042  0.043423  0.000000     16.000000
 -0.015042  0.043423  0.000000     16.000000
 -0.045127  0.008685  0.000000     16.000000
 -0.030085 -0.034739  0.000000     16.000000
 -0.015042  0.008685  0.000000     16.000000
  0.000000  0.017369  0.000000     16.000000
  0.015042  0.008685  0.000000     16.000000
  0.045127  0.078162  0.000000     16.000000
 -0.030085 -0.069477  0.000000     16.000000
  0.045127  0.060793  0.000000     16.000000
 -0.045127  0.026054  0.000000     16.000000
  0.000000  0.052108  0.000000     16.000000
  0.045127  0.026054  0.000000     16.000000
 


--------------------------------------------------------------------------------------------------------




 Dimension of arrays:
   k-points           NKPTS =     24   k-points in BZ     NKDIM =     24   number of bands    NBANDS=    232
   number of dos      NEDOS =    301   number of ions     NIONS =     39
   non local maximal  LDIM  =      6   non local SUM 2l+1 LMDIM =     18
   total plane-waves  NPLWV = 128000
   max r-space proj   IRMAX =   1966   max aug-charges    IRDMAX=   6482
   dimension x,y,z NGX =    40 NGY =   40 NGZ =   80
   dimension x,y,z NGXF=    80 NGYF=   80 NGZF=  160
   support grid    NGXF=    80 NGYF=   80 NGZF=  160
   ions per type =              36   1   2
   NGX,Y,Z   is equivalent  to a cutoff of   8.00,  8.00,  8.05 a.u.
   NGXF,Y,Z  is equivalent  to a cutoff of  16.00, 16.00, 16.10 a.u.

 SYSTEM =  PBE-grap                                
 POSCAR =  initial\(6)                             

 Startparameter for this run:
   NWRITE =      0    write-flag & timer
   PREC   = normal    normal or accurate (medium, high low for compatibility)
   ISTART =      0    job   : 0-new  1-cont  2-samecut
   ICHARG =      2    charge: 1-file 2-atom 10-const
   ISPIN  =      1    spin polarized calculation?
   LNONCOLLINEAR =      F non collinear calculations
   LSORBIT =      F    spin-orbit coupling
   INIWAV =      1    electr: 0-lowe 1-rand  2-diag
   LASPH  =      F    aspherical Exc in radial PAW
   METAGGA=      F    non-selfconsistent MetaGGA calc.

 Electronic Relaxation 1
   ENCUT  =  370.0 eV  27.19 Ry    5.21 a.u.  13.03 13.03 25.92*2*pi/ulx,y,z
   ENINI  =  370.0     initial cutoff
   ENAUG  =  644.9 eV  augmentation charge cutoff
   NELM   =    150;   NELMIN=  4; NELMDL= -5     # of ELM steps 
   EDIFF  = 0.1E-04   stopping-criterion for ELM
   LREAL  =      T    real-space projection
   NLSPLINE    = F    spline interpolate recip. space projectors
   LCOMPAT=      F    compatible to vasp.4.4
   GGA_COMPAT  = T    GGA compatible to vasp.4.4-vasp.4.6
   LMAXPAW     = -100 max onsite density
   LMAXMIX     =    2 max onsite mixed and CHGCAR
   VOSKOWN=      0    Vosko Wilk Nusair interpolation
   ROPT   =   -0.00050  -0.00050  -0.00050
 Ionic relaxation
   EDIFFG = -.3E-01   stopping-criterion for IOM
   NSW    =   1000    number of steps for IOM
   NBLOCK =      1;   KBLOCK =   1000    inner block; outer block 
   IBRION =      3    ionic relax: 0-MD 1-quasi-New 2-CG
   NFREE  =      0    steps in history (QN), initial steepest desc. (CG)
   ISIF   =      2    stress and relaxation
   IWAVPR =     11    prediction:  0-non 1-charg 2-wave 3-comb
   ISYM   =      0    0-nonsym 1-usesym 2-fastsym
   LCORR  =      T    Harris-Foulkes like correction to forces

   POTIM  = 0.0000    time-step for ionic-motion
   TEIN   =    0.0    initial temperature
   TEBEG  =    0.0;   TEEND  =   0.0 temperature during run
   SMASS  =  -3.00    Nose mass-parameter (am)
   estimated Nose-frequenzy (Omega)   =  0.10E-29 period in steps =  0.00 mass=  -0.158E-26a.u.
   SCALEE = 1.0000    scale energy and forces
   NPACO  =    256;   APACO  = 16.0  distance and # of slots for P.C.
   PSTRESS=    0.0 pullay stress

  Mass of Ions in am
   POMASS = 106.42 12.01 16.00
  Ionic Valenz
   ZVAL   =  10.00  4.00  6.00
  Atomic Wigner-Seitz radii
   RWIGS  =  -1.00 -1.00 -1.00
  virtual crystal weights 
   VCA    =   1.00  1.00  1.00
   NELECT =     376.0000    total number of electrons
   NUPDOWN=      -1.0000    fix difference up-down

 DOS related values:
   EMIN   =  10.00;   EMAX   =-10.00  energy-range for DOS
   EFERMI =   0.00
   ISMEAR =     0;   SIGMA  =   0.41  broadening in eV -4-tet -1-fermi 0-gaus

 Electronic relaxation 2 (details)
   IALGO  =     38    algorithm
   LDIAG  =      T    sub-space diagonalisation (order eigenvalues)
   LSUBROT=      F    optimize rotation matrix (better conditioning)
   TURBO    =      0    0=normal 1=particle mesh
   IRESTART =      0    0=no restart 2=restart with 2 vectors
   NREBOOT  =      0    no. of reboots
   NMIN     =      0    reboot dimension
   EREF     =   0.00    reference energy to select bands
   IMIX   =      4    mixing-type and parameters
     AMIX     =   0.40;   BMIX     =  1.00
     AMIX_MAG =   1.60;   BMIX_MAG =  1.00
     AMIN     =   0.10
     WC   =   100.;   INIMIX=   1;  MIXPRE=   1;  MAXMIX= -45

 Intra band minimization:
   WEIMIN = 0.0010     energy-eigenvalue tresh-hold
   EBREAK =  0.11E-07  absolut break condition
   DEPER  =   0.30     relativ break condition  

   TIME   =   0.40     timestep for ELM

  volume/ion in A,a.u.               =      25.34       170.98
  Fermi-wavevector in a.u.,A,eV,Ry     =   1.186304  2.241790 19.147714  1.407317
  Thomas-Fermi vector in A             =   2.322480
 
 Write flags
   LWAVE        =      F    write WAVECAR
   LDOWNSAMPLE  =      F    k-point downsampling of WAVECAR
   LCHARG       =      F    write CHGCAR
   LVTOT        =      F    write LOCPOT, total local potential
   LVHAR        =      F    write LOCPOT, Hartree potential only
   LELF         =      F    write electronic localiz. function (ELF)
   LORBIT       =      0    0 simple, 1 ext, 2 COOP (PROOUT), +10 PAW based schemes


 Dipole corrections
   LMONO  =      F    monopole corrections only (constant potential shift)
   LDIPOL =      F    correct potential (dipole corrections)
   IDIPOL =      0    1-x, 2-y, 3-z, 4-all directions 
   EPSILON=  1.0000000 bulk dielectric constant

 Exchange correlation treatment:
   GGA     =    PE    GGA type
   LEXCH   =     8    internal setting for exchange type
   VOSKOWN=      0    Vosko Wilk Nusair interpolation
   LHFCALC =     F    Hartree Fock is set to
   LHFONE  =     F    Hartree Fock one center treatment
   AEXX    =    0.0000 exact exchange contribution

 Linear response parameters
   LEPSILON=     F    determine dielectric tensor
   LRPA    =     F    only Hartree local field effects (RPA)
   LNABLA  =     F    use nabla operator in PAW spheres
   LVEL    =     F    velocity operator in full k-point grid
   LINTERFAST=   F  fast interpolation
   KINTER  =     0    interpolate to denser k-point grid
   CSHIFT  =0.1000    complex shift for real part using Kramers Kronig
   OMEGAMAX=  -1.0    maximum frequency
   DEG_THRESHOLD= 0.2000000E-02 threshold for treating states as degnerate
   RTIME   =   -0.100 relaxation time in fs
  (WPLASMAI=    0.000 imaginary part of plasma frequency in eV, 0.658/RTIME)
   DFIELD  = 0.0000000 0.0000000 0.0000000 field for delta impulse in time
 
 Orbital magnetization related:
   ORBITALMAG=     F  switch on orbital magnetization
   LCHIMAG   =     F  perturbation theory with respect to B field
   DQ        =  0.001000  dq finite difference perturbation B field
   LLRAUG    =     F  two centre corrections for induced B field



--------------------------------------------------------------------------------------------------------


 quickmin algorithm: (dynamic with friction)
   using selective dynamics as specified on POSCAR
 charge density and potential will be updated during run
 non-spin polarized calculation
 Variant of blocked Davidson
 Davidson routine will perform the subspace rotation
 perform sub-space diagonalisation
    after iterative eigenvector-optimisation
 modified Broyden-mixing scheme, WC =      100.0
 initial mixing is a Kerker type mixing with AMIX =  0.4000 and BMIX =      1.0000
 Hartree-type preconditioning will be used
 using additional bands           44
 real space projection scheme for non local part
 use partial core corrections
 calculate Harris-corrections to forces 
   (improved forces if not selfconsistent)
 use gradient corrections 
 use of overlap-Matrix (Vanderbilt PP)
 Gauss-broadening in eV      SIGMA  =   0.41


--------------------------------------------------------------------------------------------------------


  energy-cutoff  :      370.00
  volume of cell :      988.15
      direct lattice vectors                 reciprocal lattice vectors
     8.309900284  0.000000000  0.000000000     0.120338387  0.069477400  0.000000000
    -4.154950142  7.196584749  0.000000000     0.000000000  0.138954801  0.000000000
     0.000000000  0.000000000 16.523500443     0.000000000  0.000000000  0.060519864

  length of vectors
     8.309900284  8.309900284 16.523500443     0.138954801  0.138954801  0.060519864


 
 k-points in units of 2pi/SCALE and weight: Automatic mesh                          
   0.01504230  0.02605403  0.00000000       0.042
   0.03008460  0.00000000  0.00000000       0.042
   0.01504230 -0.02605403  0.00000000       0.042
   0.04512690  0.04342338  0.00000000       0.042
   0.06016919 -0.01736935  0.00000000       0.042
   0.01504230  0.07816208  0.00000000       0.042
  -0.01504230 -0.06079273  0.00000000       0.042
   0.04512690  0.09553143  0.00000000       0.042
   0.06016919  0.01736935  0.00000000       0.042
  -0.04512690 -0.00868468  0.00000000       0.042
  -0.03008460  0.03473870  0.00000000       0.042
   0.01504230  0.04342338  0.00000000       0.042
  -0.01504230  0.04342338  0.00000000       0.042
  -0.04512690  0.00868468  0.00000000       0.042
  -0.03008460 -0.03473870  0.00000000       0.042
  -0.01504230  0.00868468  0.00000000       0.042
   0.00000000  0.01736935  0.00000000       0.042
   0.01504230  0.00868468  0.00000000       0.042
   0.04512690  0.07816208  0.00000000       0.042
  -0.03008460 -0.06947740  0.00000000       0.042
   0.04512690  0.06079273  0.00000000       0.042
  -0.04512690  0.02605403  0.00000000       0.042
   0.00000000  0.05210805  0.00000000       0.042
   0.04512690  0.02605403  0.00000000       0.042
 
 k-points in reciprocal lattice and weights: Automatic mesh                          
   0.12500000  0.12500000  0.00000000       0.042
   0.25000000 -0.12500000  0.00000000       0.042
   0.12500000 -0.25000000  0.00000000       0.042
   0.37500000  0.12500000  0.00000000       0.042
   0.50000000 -0.37500000  0.00000000       0.042
   0.12500000  0.50000000  0.00000000       0.042
  -0.12500000 -0.37500000  0.00000000       0.042
   0.37500000  0.50000000  0.00000000       0.042
   0.50000000 -0.12500000  0.00000000       0.042
  -0.37500000  0.12500000  0.00000000       0.042
  -0.25000000  0.37500000  0.00000000       0.042
   0.12500000  0.25000000  0.00000000       0.042
  -0.12500000  0.37500000  0.00000000       0.042
  -0.37500000  0.25000000  0.00000000       0.042
  -0.25000000 -0.12500000  0.00000000       0.042
  -0.12500000  0.12500000  0.00000000       0.042
   0.00000000  0.12500000  0.00000000       0.042
   0.12500000  0.00000000  0.00000000       0.042
   0.37500000  0.37500000  0.00000000       0.042
  -0.25000000 -0.37500000  0.00000000       0.042
   0.37500000  0.25000000  0.00000000       0.042
  -0.37500000  0.37500000  0.00000000       0.042
   0.00000000  0.37500000  0.00000000       0.042
   0.37500000  0.00000000  0.00000000       0.042
 
 position of ions in fractional coordinates (direct lattice) 
   0.99982000  0.00108000  0.43398000
   0.11093000  0.22330000  0.16024000
   0.22204000  0.11219000  0.29711000
   0.33315000  0.00108000  0.43398000
   0.44426000  0.22330000  0.16024000
   0.55538000  0.11219000  0.29711000
   0.66649000  0.00108000  0.43398000
   0.77760000  0.22330000  0.16024000
   0.88871000  0.11219000  0.29711000
   0.99982000  0.33441000  0.43398000
   0.11093000  0.55664000  0.16024000
   0.22204000  0.44552000  0.29711000
   0.33315000  0.33441000  0.43398000
   0.44426000  0.55664000  0.16024000
   0.55538000  0.44552000  0.29711000
   0.66649000  0.33441000  0.43398000
   0.77760000  0.55664000  0.16024000
   0.88871000  0.44552000  0.29711000
   0.99982000  0.66775000  0.43398000
   0.11093000  0.88997000  0.16024000
   0.22204000  0.77886000  0.29711000
   0.33315000  0.66775000  0.43398000
   0.44426000  0.88997000  0.16024000
   0.55538000  0.77886000  0.29711000
   0.66649000  0.66775000  0.43398000
   0.77760000  0.88997000  0.16024000
   0.88871000  0.77886000  0.29711000
   0.99982000  0.00108000  0.02337000
   0.33315000  0.00108000  0.02337000
   0.66649000  0.00108000  0.02337000
   0.99982000  0.33441000  0.02337000
   0.33315000  0.33441000  0.02337000
   0.66649000  0.33441000  0.02337000
   0.99982000  0.66775000  0.02337000
   0.33315000  0.66775000  0.02337000
   0.66649000  0.66775000  0.02337000
   0.19949000  0.07893000  0.54689000
   0.20331000  0.31375000  0.54284000
   0.25485000  0.90815000  0.55794000
 
 position of ions in cartesian coordinates  (Angst):
   8.30391716  0.00777231  7.17086872
  -0.00598313  1.60699737  2.64772571
   1.37898640  0.80738484  4.90929722
   2.76395593  0.00777231  7.17086872
   2.76395593  1.60699737  2.64772571
   4.14900856  0.80738484  4.90929722
   5.53397809  0.00777231  7.17086872
   5.53397809  1.60699737  2.64772571
   6.91894762  0.80738484  4.90929722
   6.91894762  2.40660991  7.17086872
  -1.39099421  4.00590693  2.64772571
  -0.00598313  3.20622244  4.90929722
   1.37898640  2.40660991  7.17086872
   1.37894485  4.00590693  2.64772571
   2.76403903  3.20622244  4.90929722
   4.14900856  2.40660991  7.17086872
   4.14896701  4.00590693  2.64772571
   5.53397809  3.20622244  4.90929722
   5.53393654  4.80551947  7.17086872
  -2.77596374  6.40474453  2.64772571
  -1.39099421  5.60513200  4.90929722
  -0.00602468  4.80551947  7.17086872
  -0.00602468  6.40474453  2.64772571
   1.37902795  5.60513200  4.90929722
   2.76399748  4.80551947  7.17086872
   2.76399748  6.40474453  2.64772571
   4.14896701  5.60513200  4.90929722
   8.30391716  0.00777231  0.38615421
   2.76395593  0.00777231  0.38615421
   5.53397809  0.00777231  0.38615421
   6.91894762  2.40660991  0.38615421
   1.37898640  2.40660991  0.38615421
   4.14900856  2.40660991  0.38615421
   5.53393654  4.80551947  0.38615421
  -0.00602468  4.80551947  0.38615421
   2.76399748  4.80551947  0.38615421
   1.32979179  0.56802643  9.03653716
   0.38587022  2.25792846  8.96961698
  -1.65553988  6.53557844  9.21912184
 


--------------------------------------------------------------------------------------------------------


 k-point  1 :   0.1250 0.1250 0.0000  plane waves:   15951
 k-point  2 :   0.2500-0.1250 0.0000  plane waves:   15951
 k-point  3 :   0.1250-0.2500 0.0000  plane waves:   15951
 k-point  4 :   0.3750 0.1250 0.0000  plane waves:   15982
 k-point  5 :   0.5000-0.3750 0.0000  plane waves:   15982
 k-point  6 :   0.1250 0.5000 0.0000  plane waves:   15982
 k-point  7 :  -0.1250-0.3750 0.0000  plane waves:   15982
 k-point  8 :   0.3750 0.5000 0.0000  plane waves:   15982
 k-point  9 :   0.5000-0.1250 0.0000  plane waves:   15982
 k-point 10 :  -0.3750 0.1250 0.0000  plane waves:   15967
 k-point 11 :  -0.2500 0.3750 0.0000  plane waves:   15967
 k-point 12 :   0.1250 0.2500 0.0000  plane waves:   15967
 k-point 13 :  -0.1250 0.3750 0.0000  plane waves:   15967
 k-point 14 :  -0.3750 0.2500 0.0000  plane waves:   15967
 k-point 15 :  -0.2500-0.1250 0.0000  plane waves:   15967
 k-point 16 :  -0.1250 0.1250 0.0000  plane waves:   15947
 k-point 17 :   0.0000 0.1250 0.0000  plane waves:   15947
 k-point 18 :   0.1250 0.0000 0.0000  plane waves:   15947
 k-point 19 :   0.3750 0.3750 0.0000  plane waves:   16001
 k-point 20 :  -0.2500-0.3750 0.0000  plane waves:   16001
 k-point 21 :   0.3750 0.2500 0.0000  plane waves:   16001
 k-point 22 :  -0.3750 0.3750 0.0000  plane waves:   15956
 k-point 23 :   0.0000 0.3750 0.0000  plane waves:   15956
 k-point 24 :   0.3750 0.0000 0.0000  plane waves:   15956

 maximum and minimum number of plane-waves per node :      8054     7937

 maximum number of plane-waves:     16001
 maximum index in each direction: 
   IXMAX=   13   IYMAX=   13   IZMAX=   25
   IXMIN=  -13   IYMIN=  -13   IZMIN=  -25


 real space projection operators:
  total allocation   :       9688.14 KBytes
  max/ min on nodes  :       4845.50       4842.64


 parallel 3D FFT for wavefunctions:
    minimum data exchange during FFTs selected (reduces bandwidth)
 parallel 3D FFT for charge:
    minimum data exchange during FFTs selected (reduces bandwidth)


 total amount of memory used by VASP MPI-rank0   141690. kBytes
=======================================================================

   base      :      30000. kBytes
   nonlr-proj:       7233. kBytes
   fftplans  :       4164. kBytes
   grid      :       6707. kBytes
   one-center:        311. kBytes
   wavefun   :      93275. kBytes
 
     INWAV:  cpu time    0.0002: real time    0.0002
 Broyden mixing: mesh for mixing (old mesh)
   NGX = 27   NGY = 27   NGZ = 51
  (NGX  = 80   NGY  = 80   NGZ  =160)
  gives a total of  37179 points

 initial charge density was supplied:
 charge density of overlapping atoms calculated
 number of electron     376.0000000 magnetization 
 keeping initial charge density in first step


--------------------------------------------------------------------------------------------------------


 Maximum index for non-local projection operator          939
 Maximum index for augmentation-charges          431 (set IRDMAX)


--------------------------------------------------------------------------------------------------------


 First call to EWALD:  gamma=   0.178
 Maximum number of real-space cells 4x 4x 2
 Maximum number of reciprocal cells 2x 2x 4

    FEWALD:  cpu time    0.0107: real time    0.0107


--------------------------------------- Iteration      1(   1)  ---------------------------------------


    POTLOK:  cpu time    0.1832: real time    0.1863
    SETDIJ:  cpu time    0.0444: real time    0.0449
     EDDAV:  cpu time   49.5355: real time   49.5648
       DOS:  cpu time    0.0179: real time    0.0179
    --------------------------------------------
      LOOP:  cpu time   49.7811: real time   49.8140

 eigenvalue-minimisations  : 11144
 total energy-change (2. order) : 0.2102227E+04  (-0.1520671E+05)
 number of electron     376.0000000 magnetization 
 augmentation part      376.0000000 magnetization 

 Free energy of the ion-electron system (eV)
  ---------------------------------------------------
  alpha Z        PSCENC =       918.22725072
  Ewald energy   TEWEN  =     25334.02241149
  -Hartree energ DENC   =    -57997.69240130
  -exchange      EXHF   =         0.00000000
  -V(xc)+E(xc)   XCENC  =      -993.50410848
  PAW double counting   =     29844.20032359   -27608.36462881
  entropy T*S    EENTRO =        -1.34750928
  eigenvalues    EBANDS =      2444.82231578
  atomic energy  EATOM  =     30161.86332653
  Solvation  Ediel_sol  =         0.00000000
  ---------------------------------------------------
  free energy    TOTEN  =      2102.22698025 eV

  energy without entropy =     2103.57448952  energy(sigma->0) =     2102.90073489


--------------------------------------------------------------------------------------------------------




--------------------------------------- Iteration      1(   2)  ---------------------------------------


     EDDAV:  cpu time   53.5253: real time   53.5443
       DOS:  cpu time    0.0203: real time    0.0203
    --------------------------------------------
      LOOP:  cpu time   53.5455: real time   53.5646

 eigenvalue-minimisations  : 12088
 total energy-change (2. order) :-0.2192603E+04  (-0.2060177E+04)
 number of electron     376.0000000 magnetization 
 augmentation part      376.0000000 magnetization 

 Free energy of the ion-electron system (eV)
  ---------------------------------------------------
  alpha Z        PSCENC =       918.22725072
  Ewald energy   TEWEN  =     25334.02241149
  -Hartree energ DENC   =    -57997.69240130
  -exchange      EXHF   =         0.00000000
  -V(xc)+E(xc)   XCENC  =      -993.50410848
  PAW double counting   =     29844.20032359   -27608.36462881
  entropy T*S    EENTRO =        -3.63769928
  eigenvalues    EBANDS =       254.50977507
  atomic energy  EATOM  =     30161.86332653
  Solvation  Ediel_sol  =         0.00000000
  ---------------------------------------------------
  free energy    TOTEN  =       -90.37575046 eV

  energy without entropy =      -86.73805119  energy(sigma->0) =      -88.55690082


--------------------------------------------------------------------------------------------------------




--------------------------------------- Iteration      1(   3)  ---------------------------------------


     EDDAV:  cpu time   55.1798: real time   55.2111
       DOS:  cpu time    0.0211: real time    0.0211
    --------------------------------------------
      LOOP:  cpu time   55.2009: real time   55.2322

 eigenvalue-minimisations  : 12520
 total energy-change (2. order) :-0.1147301E+03  (-0.1032366E+03)
 number of electron     376.0000000 magnetization 
 augmentation part      376.0000000 magnetization 

 Free energy of the ion-electron system (eV)
  ---------------------------------------------------
  alpha Z        PSCENC =       918.22725072
  Ewald energy   TEWEN  =     25334.02241149
  -Hartree energ DENC   =    -57997.69240130
  -exchange      EXHF   =         0.00000000
  -V(xc)+E(xc)   XCENC  =      -993.50410848
  PAW double counting   =     29844.20032359   -27608.36462881
  entropy T*S    EENTRO =        -5.33672561
  eigenvalues    EBANDS =       141.47872718
  atomic energy  EATOM  =     30161.86332653
  Solvation  Ediel_sol  =         0.00000000
  ---------------------------------------------------
  free energy    TOTEN  =      -205.10582469 eV

  energy without entropy =     -199.76909908  energy(sigma->0) =     -202.43746188


--------------------------------------------------------------------------------------------------------




--------------------------------------- Iteration      1(   4)  ---------------------------------------


     EDDAV:  cpu time   52.9901: real time   53.0066
       DOS:  cpu time    0.0207: real time    0.0207
    --------------------------------------------
      LOOP:  cpu time   53.0110: real time   53.0275

 eigenvalue-minimisations  : 11976
 total energy-change (2. order) :-0.3675968E+01  (-0.3609148E+01)
 number of electron     376.0000000 magnetization 
 augmentation part      376.0000000 magnetization 

 Free energy of the ion-electron system (eV)
  ---------------------------------------------------
  alpha Z        PSCENC =       918.22725072
  Ewald energy   TEWEN  =     25334.02241149
  -Hartree energ DENC   =    -57997.69240130
  -exchange      EXHF   =         0.00000000
  -V(xc)+E(xc)   XCENC  =      -993.50410848
  PAW double counting   =     29844.20032359   -27608.36462881
  entropy T*S    EENTRO =        -5.39303203
  eigenvalues    EBANDS =       137.85906564
  atomic energy  EATOM  =     30161.86332653
  Solvation  Ediel_sol  =         0.00000000
  ---------------------------------------------------
  free energy    TOTEN  =      -208.78179264 eV

  energy without entropy =     -203.38876061  energy(sigma->0) =     -206.08527663


--------------------------------------------------------------------------------------------------------




--------------------------------------- Iteration      1(   5)  ---------------------------------------


     EDDAV:  cpu time   61.2626: real time   61.2820
       DOS:  cpu time    0.0205: real time    0.0205
    CHARGE:  cpu time    2.4069: real time    2.4072
    MIXING:  cpu time    0.0071: real time    0.0072
    --------------------------------------------
      LOOP:  cpu time   63.6970: real time   63.7167

 eigenvalue-minimisations  : 14368
 total energy-change (2. order) :-0.1390036E+00  (-0.1386095E+00)
 number of electron     376.0000401 magnetization 
 augmentation part      145.7497839 magnetization 

 Broyden mixing:
  rms(total) = 0.42435E+01    rms(broyden)= 0.42430E+01
  rms(prec ) = 0.44527E+01
  weight for this iteration     100.00

 Free energy of the ion-electron system (eV)
  ---------------------------------------------------
  alpha Z        PSCENC =       918.22725072
  Ewald energy   TEWEN  =     25334.02241149
  -Hartree energ DENC   =    -57997.69240130
  -exchange      EXHF   =         0.00000000
  -V(xc)+E(xc)   XCENC  =      -993.50410848
  PAW double counting   =     29844.20032359   -27608.36462881
  entropy T*S    EENTRO =        -5.39454462
  eigenvalues    EBANDS =       137.72157466
  atomic energy  EATOM  =     30161.86332653
  Solvation  Ediel_sol  =         0.00000000
  ---------------------------------------------------
  free energy    TOTEN  =      -208.92079622 eV

  energy without entropy =     -203.52625160  energy(sigma->0) =     -206.22352391


--------------------------------------------------------------------------------------------------------




--------------------------------------- Iteration      1(   6)  ---------------------------------------


    POTLOK:  cpu time    0.1517: real time    0.1619
    SETDIJ:  cpu time    0.0415: real time    0.0415
     EDDAV:  cpu time   56.4713: real time   56.4854
       DOS:  cpu time    0.0220: real time    0.0220
    CHARGE:  cpu time    2.3417: real time    2.3420
    MIXING:  cpu time    0.0065: real time    0.0065
    --------------------------------------------
      LOOP:  cpu time   59.0348: real time   59.0594

 eigenvalue-minimisations  : 12904
 total energy-change (2. order) : 0.1460928E+01  (-0.4167373E+01)
 number of electron     376.0000449 magnetization 
 augmentation part      154.3238770 magnetization 

 Broyden mixing:
  rms(total) = 0.36344E+01    rms(broyden)= 0.36333E+01
  rms(prec ) = 0.43289E+01
  weight for this iteration     100.00

 eigenvalues of (default mixing * dielectric matrix)
  average eigenvalue GAMMA=   0.6346
  0.6346

 Free energy of the ion-electron system (eV)
  ---------------------------------------------------
  alpha Z        PSCENC =       918.22725072
  Ewald energy   TEWEN  =     25334.02241149
  -Hartree energ DENC   =    -57748.35808757
  -exchange      EXHF   =         0.00000000
  -V(xc)+E(xc)   XCENC  =      -998.85589778
  PAW double counting   =     31866.70347619   -29677.14010542
  entropy T*S    EENTRO =        -4.33673928
  eigenvalues    EBANDS =       -59.58550281
  atomic energy  EATOM  =     30161.86332653
  Solvation  Ediel_sol  =         0.00000000
  ---------------------------------------------------
  free energy    TOTEN  =      -207.45986794 eV

  energy without entropy =     -203.12312866  energy(sigma->0) =     -205.29149830


--------------------------------------------------------------------------------------------------------




--------------------------------------- Iteration      1(   7)  ---------------------------------------


    POTLOK:  cpu time    0.1543: real time    0.1643
    SETDIJ:  cpu time    0.0415: real time    0.0415
     EDDAV:  cpu time   66.1923: real time   66.2038
       DOS:  cpu time    0.0210: real time    0.0210
    CHARGE:  cpu time    2.3607: real time    2.3627
    MIXING:  cpu time    0.0063: real time    0.0063
    --------------------------------------------
      LOOP:  cpu time   68.7759: real time   68.7994

 eigenvalue-minimisations  : 15720
 total energy-change (2. order) : 0.2448822E+01  (-0.2761702E+01)
 number of electron     376.0000420 magnetization 
 augmentation part      150.6075223 magnetization 

 Broyden mixing:
  rms(total) = 0.25234E+01    rms(broyden)= 0.25218E+01
  rms(prec ) = 0.34032E+01
  weight for this iteration     100.00

 eigenvalues of (default mixing * dielectric matrix)
  average eigenvalue GAMMA=   0.8902
  1.4454  0.3350

 Free energy of the ion-electron system (eV)
  ---------------------------------------------------
  alpha Z        PSCENC =       918.22725072
  Ewald energy   TEWEN  =     25334.02241149
  -Hartree energ DENC   =    -57878.12520166
  -exchange      EXHF   =         0.00000000
  -V(xc)+E(xc)   XCENC  =     -1001.26314422
  PAW double counting   =     32650.62200926   -30466.74957047
  entropy T*S    EENTRO =        -5.39707225
  eigenvalues    EBANDS =        81.78894465
  atomic energy  EATOM  =     30161.86332653
  Solvation  Ediel_sol  =         0.00000000
  ---------------------------------------------------
  free energy    TOTEN  =      -205.01104596 eV

  energy without entropy =     -199.61397370  energy(sigma->0) =     -202.31250983


--------------------------------------------------------------------------------------------------------




--------------------------------------- Iteration      1(   8)  ---------------------------------------


    POTLOK:  cpu time    0.1532: real time    0.1612
    SETDIJ:  cpu time    0.0416: real time    0.0416
     EDDAV:  cpu time   52.8085: real time   52.8305
       DOS:  cpu time    0.0210: real time    0.0210
    CHARGE:  cpu time    2.4168: real time    2.4175
    MIXING:  cpu time    0.0065: real time    0.0065
    --------------------------------------------
      LOOP:  cpu time   55.4477: real time   55.4783

 eigenvalue-minimisations  : 11840
 total energy-change (2. order) :-0.1869040E+02  (-0.3010258E+01)
 number of electron     376.0000420 magnetization 
 augmentation part      151.3790132 magnetization 

 Broyden mixing:
  rms(total) = 0.46859E+01    rms(broyden)= 0.46857E+01
  rms(prec ) = 0.75259E+01
  weight for this iteration     100.00

 eigenvalues of (default mixing * dielectric matrix)
  average eigenvalue GAMMA=   0.7953
  1.8845  0.3389  0.1626

 Free energy of the ion-electron system (eV)
  ---------------------------------------------------
  alpha Z        PSCENC =       918.22725072
  Ewald energy   TEWEN  =     25334.02241149
  -Hartree energ DENC   =    -57789.11746682
  -exchange      EXHF   =         0.00000000
  -V(xc)+E(xc)   XCENC  =     -1001.22591609
  PAW double counting   =     33661.55886019   -31492.00973933
  entropy T*S    EENTRO =        -3.27243596
  eigenvalues    EBANDS =       -13.74773460
  atomic energy  EATOM  =     30161.86332653
  Solvation  Ediel_sol  =         0.00000000
  ---------------------------------------------------
  free energy    TOTEN  =      -223.70144387 eV

  energy without entropy =     -220.42900791  energy(sigma->0) =     -222.06522589


--------------------------------------------------------------------------------------------------------




--------------------------------------- Iteration      1(   9)  ---------------------------------------


    POTLOK:  cpu time    0.1538: real time    0.1640
    SETDIJ:  cpu time    0.0415: real time    0.0415
     EDDAV:  cpu time   52.5258: real time   52.5313
       DOS:  cpu time    0.0214: real time    0.0214
    CHARGE:  cpu time    2.3765: real time    2.3766
    MIXING:  cpu time    0.0070: real time    0.0070
    --------------------------------------------
      LOOP:  cpu time   55.1259: real time   55.1418

 eigenvalue-minimisations  : 11776
 total energy-change (2. order) : 0.1843857E+02  (-0.2265910E+01)
 number of electron     376.0000456 magnetization 
 augmentation part      152.5655444 magnetization 

 Broyden mixing:
  rms(total) = 0.28317E+01    rms(broyden)= 0.28314E+01
  rms(prec ) = 0.48899E+01
  weight for this iteration     100.00

 eigenvalues of (default mixing * dielectric matrix)
  average eigenvalue GAMMA=   0.6647
  1.9723  0.3261  0.2409  0.1194

 Free energy of the ion-electron system (eV)
  ---------------------------------------------------
  alpha Z        PSCENC =       918.22725072
  Ewald energy   TEWEN  =     25334.02241149
  -Hartree energ DENC   =    -57794.83285446
  -exchange      EXHF   =         0.00000000
  -V(xc)+E(xc)   XCENC  =     -1001.33609547
  PAW double counting   =     34456.48683198   -32298.31784788
  entropy T*S    EENTRO =        -4.32842202
  eigenvalues    EBANDS =        22.95252546
  atomic energy  EATOM  =     30161.86332653
  Solvation  Ediel_sol  =         0.00000000
  ---------------------------------------------------
  free energy    TOTEN  =      -205.26287365 eV

  energy without entropy =     -200.93445163  energy(sigma->0) =     -203.09866264


--------------------------------------------------------------------------------------------------------




--------------------------------------- Iteration      1(  10)  ---------------------------------------


    POTLOK:  cpu time    0.1531: real time    0.1637
    SETDIJ:  cpu time    0.0410: real time    0.0411
     EDDAV:  cpu time   52.6236: real time   52.6352
       DOS:  cpu time    0.0216: real time    0.0216
    CHARGE:  cpu time    2.3572: real time    2.3574
    MIXING:  cpu time    0.0073: real time    0.0073
    --------------------------------------------
      LOOP:  cpu time   55.2038: real time   55.2264

 eigenvalue-minimisations  : 11808
 total energy-change (2. order) : 0.6977386E+01  (-0.1150749E+01)
 number of electron     376.0000418 magnetization 
 augmentation part      152.5632960 magnetization 

 Broyden mixing:
  rms(total) = 0.10231E+01    rms(broyden)= 0.10225E+01
  rms(prec ) = 0.14695E+01
  weight for this iteration     100.00

 eigenvalues of (default mixing * dielectric matrix)
  average eigenvalue GAMMA=   0.6684
  2.0286  0.6614  0.3627  0.1887  0.1004

 Free energy of the ion-electron system (eV)
  ---------------------------------------------------
  alpha Z        PSCENC =       918.22725072
  Ewald energy   TEWEN  =     25334.02241149
  -Hartree energ DENC   =    -57837.60101709
  -exchange      EXHF   =         0.00000000
  -V(xc)+E(xc)   XCENC  =     -1001.34166359
  PAW double counting   =     34701.20668571   -32545.99136924
  entropy T*S    EENTRO =        -5.14668518
  eigenvalues    EBANDS =        76.47557315
  atomic energy  EATOM  =     30161.86332653
  Solvation  Ediel_sol  =         0.00000000
  ---------------------------------------------------
  free energy    TOTEN  =      -198.28548751 eV

  energy without entropy =     -193.13880233  energy(sigma->0) =     -195.71214492


--------------------------------------------------------------------------------------------------------




--------------------------------------- Iteration      1(  11)  ---------------------------------------


    POTLOK:  cpu time    0.1538: real time    0.1650
    SETDIJ:  cpu time    0.0411: real time    0.0414
     EDDAV:  cpu time   53.7665: real time   53.7838
       DOS:  cpu time    0.0217: real time    0.0217
    CHARGE:  cpu time    2.3753: real time    2.3755
    MIXING:  cpu time    0.0078: real time    0.0078
    --------------------------------------------
      LOOP:  cpu time   56.3662: real time   56.3952

 eigenvalue-minimisations  : 12144
 total energy-change (2. order) : 0.2552369E+00  (-0.6192999E+00)
 number of electron     376.0000431 magnetization 
 augmentation part      152.4446939 magnetization 

 Broyden mixing:
  rms(total) = 0.11000E+01    rms(broyden)= 0.10996E+01
  rms(prec ) = 0.13412E+01
  weight for this iteration     100.00

 eigenvalues of (default mixing * dielectric matrix)
  average eigenvalue GAMMA=   0.6259
  2.0911  0.7484  0.3247  0.3247  0.1661  0.1001

 Free energy of the ion-electron system (eV)
  ---------------------------------------------------
  alpha Z        PSCENC =       918.22725072
  Ewald energy   TEWEN  =     25334.02241149
  -Hartree energ DENC   =    -57835.00687156
  -exchange      EXHF   =         0.00000000
  -V(xc)+E(xc)   XCENC  =     -1000.94591746
  PAW double counting   =     34941.73254985   -32788.06299023
  entropy T*S    EENTRO =        -5.10694492
  eigenvalues    EBANDS =        75.24693500
  atomic energy  EATOM  =     30161.86332653
  Solvation  Ediel_sol  =         0.00000000
  ---------------------------------------------------
  free energy    TOTEN  =      -198.03025058 eV

  energy without entropy =     -192.92330566  energy(sigma->0) =     -195.47677812


--------------------------------------------------------------------------------------------------------




--------------------------------------- Iteration      1(  12)  ---------------------------------------


    POTLOK:  cpu time    0.1541: real time    0.1641
    SETDIJ:  cpu time    0.0411: real time    0.0411
     EDDAV:  cpu time   51.7837: real time   51.7915
       DOS:  cpu time    0.0220: real time    0.0220
    CHARGE:  cpu time    2.3723: real time    2.3730
    MIXING:  cpu time    0.0083: real time    0.0083
    --------------------------------------------
      LOOP:  cpu time   54.3814: real time   54.3999

 eigenvalue-minimisations  : 11560
 total energy-change (2. order) : 0.8879651E+00  (-0.2999252E+00)
 number of electron     376.0000427 magnetization 
 augmentation part      152.4984104 magnetization 

 Broyden mixing:
  rms(total) = 0.56799E+00    rms(broyden)= 0.56775E+00
  rms(prec ) = 0.73085E+00
  weight for this iteration     100.00

 eigenvalues of (default mixing * dielectric matrix)
  average eigenvalue GAMMA=   0.6271
  2.1135  0.6811  0.6811  0.4069  0.2040  0.2040  0.0993

 Free energy of the ion-electron system (eV)
  ---------------------------------------------------
  alpha Z        PSCENC =       918.22725072
  Ewald energy   TEWEN  =     25334.02241149
  -Hartree energ DENC   =    -57833.98799967
  -exchange      EXHF   =         0.00000000
  -V(xc)+E(xc)   XCENC  =     -1000.85615412
  PAW double counting   =     35066.21089883   -32913.63961546
  entropy T*S    EENTRO =        -5.22259462
  eigenvalues    EBANDS =        76.24019083
  atomic energy  EATOM  =     30161.86332653
  Solvation  Ediel_sol  =         0.00000000
  ---------------------------------------------------
  free energy    TOTEN  =      -197.14228546 eV

  energy without entropy =     -191.91969084  energy(sigma->0) =     -194.53098815


--------------------------------------------------------------------------------------------------------




--------------------------------------- Iteration      1(  13)  ---------------------------------------


    POTLOK:  cpu time    0.1520: real time    0.1592
    SETDIJ:  cpu time    0.0410: real time    0.0410
     EDDAV:  cpu time   52.5862: real time   52.5907
       DOS:  cpu time    0.0223: real time    0.0223
    CHARGE:  cpu time    2.3698: real time    2.3706
    MIXING:  cpu time    0.0087: real time    0.0087
    --------------------------------------------
      LOOP:  cpu time   55.1799: real time   55.1925

 eigenvalue-minimisations  : 11800
 total energy-change (2. order) : 0.1389223E+00  (-0.6197463E-01)
 number of electron     376.0000427 magnetization 
 augmentation part      152.5188885 magnetization 

 Broyden mixing:
  rms(total) = 0.38252E+00    rms(broyden)= 0.38247E+00
  rms(prec ) = 0.45237E+00
  weight for this iteration     100.00

 eigenvalues of (default mixing * dielectric matrix)
  average eigenvalue GAMMA=   0.6437
  2.1360  0.9047  0.9047  0.3820  0.2942  0.2447  0.1837  0.0993

 Free energy of the ion-electron system (eV)
  ---------------------------------------------------
  alpha Z        PSCENC =       918.22725072
  Ewald energy   TEWEN  =     25334.02241149
  -Hartree energ DENC   =    -57832.57327800
  -exchange      EXHF   =         0.00000000
  -V(xc)+E(xc)   XCENC  =     -1000.95183248
  PAW double counting   =     35100.48311522   -32948.27044070
  entropy T*S    EENTRO =        -5.25670352
  eigenvalues    EBANDS =        75.45278761
  atomic energy  EATOM  =     30161.86332653
  Solvation  Ediel_sol  =         0.00000000
  ---------------------------------------------------
  free energy    TOTEN  =      -197.00336313 eV

  energy without entropy =     -191.74665962  energy(sigma->0) =     -194.37501138


--------------------------------------------------------------------------------------------------------




--------------------------------------- Iteration      1(  14)  ---------------------------------------


    POTLOK:  cpu time    0.1523: real time    0.1598
    SETDIJ:  cpu time    0.0409: real time    0.0409
     EDDAV:  cpu time   51.1919: real time   51.2404
       DOS:  cpu time    0.0220: real time    0.0221
    CHARGE:  cpu time    2.3736: real time    2.3741
    MIXING:  cpu time    0.0092: real time    0.0092
    --------------------------------------------
      LOOP:  cpu time   53.7899: real time   53.8464

 eigenvalue-minimisations  : 11360
 total energy-change (2. order) : 0.4224552E-01  (-0.3752281E-01)
 number of electron     376.0000427 magnetization 
 augmentation part      152.4480680 magnetization 

 Broyden mixing:
  rms(total) = 0.21922E+00    rms(broyden)= 0.21890E+00
  rms(prec ) = 0.27347E+00
  weight for this iteration     100.00

 eigenvalues of (default mixing * dielectric matrix)
  average eigenvalue GAMMA=   0.6876
  2.2392  1.1493  1.1493  0.4215  0.4215  0.0993  0.3001  0.1896  0.2182

 Free energy of the ion-electron system (eV)
  ---------------------------------------------------
  alpha Z        PSCENC =       918.22725072
  Ewald energy   TEWEN  =     25334.02241149
  -Hartree energ DENC   =    -57834.01753316
  -exchange      EXHF   =         0.00000000
  -V(xc)+E(xc)   XCENC  =     -1001.03178055
  PAW double counting   =     35113.76860497   -32961.72147292
  entropy T*S    EENTRO =        -5.33790603
  eigenvalues    EBANDS =        77.26598134
  atomic energy  EATOM  =     30161.86332653
  Solvation  Ediel_sol  =         0.00000000
  ---------------------------------------------------
  free energy    TOTEN  =      -196.96111761 eV

  energy without entropy =     -191.62321158  energy(sigma->0) =     -194.29216459


--------------------------------------------------------------------------------------------------------




--------------------------------------- Iteration      1(  15)  ---------------------------------------


    POTLOK:  cpu time    0.1524: real time    0.1624
    SETDIJ:  cpu time    0.0409: real time    0.0410
     EDDAV:  cpu time   52.0601: real time   52.0866
       DOS:  cpu time    0.0219: real time    0.0219
    CHARGE:  cpu time    2.3761: real time    2.3762
    MIXING:  cpu time    0.0097: real time    0.0097
    --------------------------------------------
      LOOP:  cpu time   54.6612: real time   54.6977

 eigenvalue-minimisations  : 11632
 total energy-change (2. order) : 0.2658253E-01  (-0.1941692E-01)
 number of electron     376.0000426 magnetization 
 augmentation part      152.4200928 magnetization 

 Broyden mixing:
  rms(total) = 0.19183E+00    rms(broyden)= 0.19179E+00
  rms(prec ) = 0.24222E+00
  weight for this iteration     100.00

 eigenvalues of (default mixing * dielectric matrix)
  average eigenvalue GAMMA=   0.6853
  2.3449  1.2433  1.2433  0.4642  0.4642  0.3461  0.0993  0.1902  0.2129  0.2448

 Free energy of the ion-electron system (eV)
  ---------------------------------------------------
  alpha Z        PSCENC =       918.22725072
  Ewald energy   TEWEN  =     25334.02241149
  -Hartree energ DENC   =    -57840.56625916
  -exchange      EXHF   =         0.00000000
  -V(xc)+E(xc)   XCENC  =     -1000.98472814
  PAW double counting   =     35141.02689831   -32989.26305109
  entropy T*S    EENTRO =        -5.32387886
  eigenvalues    EBANDS =        84.06349512
  atomic energy  EATOM  =     30161.86332653
  Solvation  Ediel_sol  =         0.00000000
  ---------------------------------------------------
  free energy    TOTEN  =      -196.93453509 eV

  energy without entropy =     -191.61065622  energy(sigma->0) =     -194.27259565


--------------------------------------------------------------------------------------------------------




--------------------------------------- Iteration      1(  16)  ---------------------------------------


    POTLOK:  cpu time    0.1550: real time    0.1653
    SETDIJ:  cpu time    0.0412: real time    0.0412
     EDDAV:  cpu time   52.2033: real time   52.2227
       DOS:  cpu time    0.0220: real time    0.0220
    CHARGE:  cpu time    2.3745: real time    2.3747
    MIXING:  cpu time    0.0102: real time    0.0102
    --------------------------------------------
      LOOP:  cpu time   54.8063: real time   54.8362

 eigenvalue-minimisations  : 11656
 total energy-change (2. order) : 0.2855553E-01  (-0.8326539E-02)
 number of electron     376.0000426 magnetization 
 augmentation part      152.3901957 magnetization 

 Broyden mixing:
  rms(total) = 0.95949E-01    rms(broyden)= 0.95922E-01
  rms(prec ) = 0.13951E+00
  weight for this iteration     100.00

 eigenvalues of (default mixing * dielectric matrix)
  average eigenvalue GAMMA=   0.6856
  2.4027  1.2905  1.2905  0.5682  0.5682  0.3793  0.0993  0.2922  0.1891  0.2162
  0.2450

 Free energy of the ion-electron system (eV)
  ---------------------------------------------------
  alpha Z        PSCENC =       918.22725072
  Ewald energy   TEWEN  =     25334.02241149
  -Hartree energ DENC   =    -57844.12432788
  -exchange      EXHF   =         0.00000000
  -V(xc)+E(xc)   XCENC  =     -1000.95422867
  PAW double counting   =     35148.88147117   -32997.23613947
  entropy T*S    EENTRO =        -5.33818145
  eigenvalues    EBANDS =        87.75243800
  atomic energy  EATOM  =     30161.86332653
  Solvation  Ediel_sol  =         0.00000000
  ---------------------------------------------------
  free energy    TOTEN  =      -196.90597956 eV

  energy without entropy =     -191.56779811  energy(sigma->0) =     -194.23688883


--------------------------------------------------------------------------------------------------------




--------------------------------------- Iteration      1(  17)  ---------------------------------------


    POTLOK:  cpu time    0.1550: real time    0.1651
    SETDIJ:  cpu time    0.0411: real time    0.0411
     EDDAV:  cpu time   51.5267: real time   51.5336
       DOS:  cpu time    0.0220: real time    0.0221
    CHARGE:  cpu time    2.3769: real time    2.3771
    MIXING:  cpu time    0.0108: real time    0.0108
    --------------------------------------------
      LOOP:  cpu time   54.1325: real time   54.1498

 eigenvalue-minimisations  : 11464
 total energy-change (2. order) : 0.5638016E-02  (-0.2620654E-02)
 number of electron     376.0000426 magnetization 
 augmentation part      152.4124041 magnetization 

 Broyden mixing:
  rms(total) = 0.53786E-01    rms(broyden)= 0.53743E-01
  rms(prec ) = 0.69833E-01
  weight for this iteration     100.00

 eigenvalues of (default mixing * dielectric matrix)
  average eigenvalue GAMMA=   0.6816
  2.4299  1.3281  1.3281  0.6569  0.6569  0.0993  0.3905  0.3639  0.2963  0.1890
  0.2202  0.2202

 Free energy of the ion-electron system (eV)
  ---------------------------------------------------
  alpha Z        PSCENC =       918.22725072
  Ewald energy   TEWEN  =     25334.02241149
  -Hartree energ DENC   =    -57846.13686325
  -exchange      EXHF   =         0.00000000
  -V(xc)+E(xc)   XCENC  =     -1000.92707192
  PAW double counting   =     35148.67915482   -32997.13004066
  entropy T*S    EENTRO =        -5.33131496
  eigenvalues    EBANDS =        89.83280568
  atomic energy  EATOM  =     30161.86332653
  Solvation  Ediel_sol  =         0.00000000
  ---------------------------------------------------
  free energy    TOTEN  =      -196.90034154 eV

  energy without entropy =     -191.56902659  energy(sigma->0) =     -194.23468407


--------------------------------------------------------------------------------------------------------




--------------------------------------- Iteration      1(  18)  ---------------------------------------


    POTLOK:  cpu time    0.1546: real time    0.1642
    SETDIJ:  cpu time    0.0412: real time    0.0412
     EDDAV:  cpu time   52.4176: real time   52.4348
       DOS:  cpu time    0.0218: real time    0.0218
    CHARGE:  cpu time    2.3784: real time    2.3786
    MIXING:  cpu time    0.0116: real time    0.0116
    --------------------------------------------
      LOOP:  cpu time   55.0252: real time   55.0522

 eigenvalue-minimisations  : 11704
 total energy-change (2. order) : 0.1745342E-02  (-0.8937440E-03)
 number of electron     376.0000426 magnetization 
 augmentation part      152.4185255 magnetization 

 Broyden mixing:
  rms(total) = 0.31708E-01    rms(broyden)= 0.31672E-01
  rms(prec ) = 0.42162E-01
  weight for this iteration     100.00

 eigenvalues of (default mixing * dielectric matrix)
  average eigenvalue GAMMA=   0.6914
  2.4440  1.3741  1.3741  0.7842  0.7842  0.4667  0.4158  0.0993  0.3277  0.2833
  0.1891  0.2177  0.2284

 Free energy of the ion-electron system (eV)
  ---------------------------------------------------
  alpha Z        PSCENC =       918.22725072
  Ewald energy   TEWEN  =     25334.02241149
  -Hartree energ DENC   =    -57848.47989530
  -exchange      EXHF   =         0.00000000
  -V(xc)+E(xc)   XCENC  =     -1000.91282666
  PAW double counting   =     35144.02357258   -32992.49630473
  entropy T*S    EENTRO =        -5.32450092
  eigenvalues    EBANDS =        92.17837009
  atomic energy  EATOM  =     30161.86332653
  Solvation  Ediel_sol  =         0.00000000
  ---------------------------------------------------
  free energy    TOTEN  =      -196.89859620 eV

  energy without entropy =     -191.57409528  energy(sigma->0) =     -194.23634574


--------------------------------------------------------------------------------------------------------




--------------------------------------- Iteration      1(  19)  ---------------------------------------


    POTLOK:  cpu time    0.1544: real time    0.1649
    SETDIJ:  cpu time    0.0411: real time    0.0411
     EDDAV:  cpu time   52.2202: real time   52.2291
       DOS:  cpu time    0.0219: real time    0.0219
    CHARGE:  cpu time    2.3758: real time    2.3761
    MIXING:  cpu time    0.0123: real time    0.0122
    --------------------------------------------
      LOOP:  cpu time   54.8257: real time   54.8452

 eigenvalue-minimisations  : 11632
 total energy-change (2. order) :-0.1156056E-03  (-0.3121907E-03)
 number of electron     376.0000426 magnetization 
 augmentation part      152.4033374 magnetization 

 Broyden mixing:
  rms(total) = 0.22543E-01    rms(broyden)= 0.22526E-01
  rms(prec ) = 0.29615E-01
  weight for this iteration     100.00

 eigenvalues of (default mixing * dielectric matrix)
  average eigenvalue GAMMA=   0.7094
  2.4112  1.5629  1.3292  0.9958  0.9958  0.4835  0.4835  0.0993  0.3510  0.3220
  0.1891  0.2637  0.2157  0.2288

 Free energy of the ion-electron system (eV)
  ---------------------------------------------------
  alpha Z        PSCENC =       918.22725072
  Ewald energy   TEWEN  =     25334.02241149
  -Hartree energ DENC   =    -57850.95142585
  -exchange      EXHF   =         0.00000000
  -V(xc)+E(xc)   XCENC  =     -1000.90972982
  PAW double counting   =     35134.34862817   -32982.79314991
  entropy T*S    EENTRO =        -5.32811424
  eigenvalues    EBANDS =        94.62209111
  atomic energy  EATOM  =     30161.86332653
  Solvation  Ediel_sol  =         0.00000000
  ---------------------------------------------------
  free energy    TOTEN  =      -196.89871181 eV

  energy without entropy =     -191.57059757  energy(sigma->0) =     -194.23465469


--------------------------------------------------------------------------------------------------------




--------------------------------------- Iteration      1(  20)  ---------------------------------------


    POTLOK:  cpu time    0.1544: real time    0.1642
    SETDIJ:  cpu time    0.0411: real time    0.0411
     EDDAV:  cpu time   51.6432: real time   51.6516
       DOS:  cpu time    0.0221: real time    0.0221
    CHARGE:  cpu time    2.3705: real time    2.3706
    MIXING:  cpu time    0.0129: real time    0.0130
    --------------------------------------------
      LOOP:  cpu time   54.2442: real time   54.2626

 eigenvalue-minimisations  : 11480
 total energy-change (2. order) :-0.3600300E-03  (-0.2139795E-03)
 number of electron     376.0000426 magnetization 
 augmentation part      152.3974717 magnetization 

 Broyden mixing:
  rms(total) = 0.21246E-01    rms(broyden)= 0.21235E-01
  rms(prec ) = 0.27598E-01
  weight for this iteration     100.00

 eigenvalues of (default mixing * dielectric matrix)
  average eigenvalue GAMMA=   0.7293
  2.2461  2.2461  1.2663  1.0643  1.0643  0.5390  0.5390  0.0993  0.3518  0.3518
  0.1891  0.2866  0.2187  0.2223  0.2548

 Free energy of the ion-electron system (eV)
  ---------------------------------------------------
  alpha Z        PSCENC =       918.22725072
  Ewald energy   TEWEN  =     25334.02241149
  -Hartree energ DENC   =    -57853.41999962
  -exchange      EXHF   =         0.00000000
  -V(xc)+E(xc)   XCENC  =     -1000.90179247
  PAW double counting   =     35123.30338618   -32971.71282386
  entropy T*S    EENTRO =        -5.32688292
  eigenvalues    EBANDS =        97.04605210
  atomic energy  EATOM  =     30161.86332653
  Solvation  Ediel_sol  =         0.00000000
  ---------------------------------------------------
  free energy    TOTEN  =      -196.89907184 eV

  energy without entropy =     -191.57218892  energy(sigma->0) =     -194.23563038


--------------------------------------------------------------------------------------------------------




--------------------------------------- Iteration      1(  21)  ---------------------------------------


    POTLOK:  cpu time    0.1546: real time    0.1644
    SETDIJ:  cpu time    0.0412: real time    0.0412
     EDDAV:  cpu time   51.7609: real time   51.7743
       DOS:  cpu time    0.0223: real time    0.0223
    CHARGE:  cpu time    2.3738: real time    2.3800
    MIXING:  cpu time    0.0137: real time    0.0136
    --------------------------------------------
      LOOP:  cpu time   54.3664: real time   54.3958

 eigenvalue-minimisations  : 11536
 total energy-change (2. order) :-0.6965904E-04  (-0.1099104E-03)
 number of electron     376.0000426 magnetization 
 augmentation part      152.3992483 magnetization 

 Broyden mixing:
  rms(total) = 0.14063E-01    rms(broyden)= 0.14060E-01
  rms(prec ) = 0.18453E-01
  weight for this iteration     100.00

 eigenvalues of (default mixing * dielectric matrix)
  average eigenvalue GAMMA=   0.7357
  2.3657  2.3657  1.2211  1.1280  1.1280  0.6029  0.6029  0.0993  0.3890  0.3890
  0.3364  0.2735  0.1891  0.2404  0.2181  0.2221

 Free energy of the ion-electron system (eV)
  ---------------------------------------------------
  alpha Z        PSCENC =       918.22725072
  Ewald energy   TEWEN  =     25334.02241149
  -Hartree energ DENC   =    -57855.49379668
  -exchange      EXHF   =         0.00000000
  -V(xc)+E(xc)   XCENC  =     -1000.88919168
  PAW double counting   =     35114.07931972   -32962.46452990
  entropy T*S    EENTRO =        -5.32642836
  eigenvalues    EBANDS =        99.08249666
  atomic energy  EATOM  =     30161.86332653
  Solvation  Ediel_sol  =         0.00000000
  ---------------------------------------------------
  free energy    TOTEN  =      -196.89914150 eV

  energy without entropy =     -191.57271313  energy(sigma->0) =     -194.23592732


--------------------------------------------------------------------------------------------------------




--------------------------------------- Iteration      1(  22)  ---------------------------------------


    POTLOK:  cpu time    0.1544: real time    0.1643
    SETDIJ:  cpu time    0.0412: real time    0.0412
     EDDAV:  cpu time   53.4543: real time   53.4662
       DOS:  cpu time    0.0218: real time    0.0218
    CHARGE:  cpu time    2.3749: real time    2.3751
    MIXING:  cpu time    0.0143: real time    0.0143
    --------------------------------------------
      LOOP:  cpu time   56.0609: real time   56.0829

 eigenvalue-minimisations  : 12016
 total energy-change (2. order) :-0.1359253E-03  (-0.5210207E-04)
 number of electron     376.0000426 magnetization 
 augmentation part      152.4037271 magnetization 

 Broyden mixing:
  rms(total) = 0.71179E-02    rms(broyden)= 0.70878E-02
  rms(prec ) = 0.10474E-01
  weight for this iteration     100.00

 eigenvalues of (default mixing * dielectric matrix)
  average eigenvalue GAMMA=   0.7391
  2.4338  2.4338  1.2879  1.2879  0.9915  0.6507  0.6507  0.5318  0.0993  0.3768
  0.3768  0.2906  0.2906  0.1891  0.2168  0.2313  0.2259

 Free energy of the ion-electron system (eV)
  ---------------------------------------------------
  alpha Z        PSCENC =       918.22725072
  Ewald energy   TEWEN  =     25334.02241149
  -Hartree energ DENC   =    -57856.95923678
  -exchange      EXHF   =         0.00000000
  -V(xc)+E(xc)   XCENC  =     -1000.87605551
  PAW double counting   =     35110.11028189   -32958.49510957
  entropy T*S    EENTRO =        -5.32449785
  eigenvalues    EBANDS =       100.53235164
  atomic energy  EATOM  =     30161.86332653
  Solvation  Ediel_sol  =         0.00000000
  ---------------------------------------------------
  free energy    TOTEN  =      -196.89927742 eV

  energy without entropy =     -191.57477957  energy(sigma->0) =     -194.23702850


--------------------------------------------------------------------------------------------------------




--------------------------------------- Iteration      1(  23)  ---------------------------------------


    POTLOK:  cpu time    0.1538: real time    0.1615
    SETDIJ:  cpu time    0.0412: real time    0.0412
     EDDAV:  cpu time   51.6926: real time   51.7090
       DOS:  cpu time    0.0221: real time    0.0221
    CHARGE:  cpu time    2.3859: real time    2.3861
    MIXING:  cpu time    0.0150: real time    0.0150
    --------------------------------------------
      LOOP:  cpu time   54.3105: real time   54.3349

 eigenvalue-minimisations  : 11504
 total energy-change (2. order) :-0.2348277E-03  (-0.3847809E-04)
 number of electron     376.0000426 magnetization 
 augmentation part      152.4024194 magnetization 

 Broyden mixing:
  rms(total) = 0.79151E-02    rms(broyden)= 0.79092E-02
  rms(prec ) = 0.11030E-01
  weight for this iteration     100.00

 eigenvalues of (default mixing * dielectric matrix)
  average eigenvalue GAMMA=   0.7438
  2.6354  2.2402  1.3964  1.3964  0.9623  0.9623  0.6029  0.6029  0.3911  0.3911
  0.0993  0.3241  0.2804  0.1891  0.2458  0.2321  0.2178  0.2194

 Free energy of the ion-electron system (eV)
  ---------------------------------------------------
  alpha Z        PSCENC =       918.22725072
  Ewald energy   TEWEN  =     25334.02241149
  -Hartree energ DENC   =    -57858.24824253
  -exchange      EXHF   =         0.00000000
  -V(xc)+E(xc)   XCENC  =     -1000.86759705
  PAW double counting   =     35108.41985751   -32956.81567022
  entropy T*S    EENTRO =        -5.32415775
  eigenvalues    EBANDS =       101.82330905
  atomic energy  EATOM  =     30161.86332653
  Solvation  Ediel_sol  =         0.00000000
  ---------------------------------------------------
  free energy    TOTEN  =      -196.89951225 eV

  energy without entropy =     -191.57535450  energy(sigma->0) =     -194.23743338


--------------------------------------------------------------------------------------------------------




--------------------------------------- Iteration      1(  24)  ---------------------------------------


    POTLOK:  cpu time    0.1539: real time    0.1638
    SETDIJ:  cpu time    0.0412: real time    0.0412
     EDDAV:  cpu time   53.0110: real time   53.0168
       DOS:  cpu time    0.0220: real time    0.0220
    CHARGE:  cpu time    2.3850: real time    2.3852
    MIXING:  cpu time    0.0159: real time    0.0159
    --------------------------------------------
      LOOP:  cpu time   55.6290: real time   55.6448

 eigenvalue-minimisations  : 11888
 total energy-change (2. order) :-0.1549201E-03  (-0.1431228E-04)
 number of electron     376.0000426 magnetization 
 augmentation part      152.3992825 magnetization 

 Broyden mixing:
  rms(total) = 0.41958E-02    rms(broyden)= 0.41916E-02
  rms(prec ) = 0.63636E-02
  weight for this iteration     100.00

 eigenvalues of (default mixing * dielectric matrix)
  average eigenvalue GAMMA=   0.7740
  2.7167  2.1484  2.1484  1.1254  1.1254  1.0343  0.6449  0.6449  0.5259  0.3962
  0.3962  0.0993  0.3187  0.2855  0.1891  0.2441  0.2271  0.2179  0.2179

 Free energy of the ion-electron system (eV)
  ---------------------------------------------------
  alpha Z        PSCENC =       918.22725072
  Ewald energy   TEWEN  =     25334.02241149
  -Hartree energ DENC   =    -57859.39048832
  -exchange      EXHF   =         0.00000000
  -V(xc)+E(xc)   XCENC  =     -1000.86276665
  PAW double counting   =     35107.71381979   -32956.12826292
  entropy T*S    EENTRO =        -5.32532323
  eigenvalues    EBANDS =       102.98036541
  atomic energy  EATOM  =     30161.86332653
  Solvation  Ediel_sol  =         0.00000000
  ---------------------------------------------------
  free energy    TOTEN  =      -196.89966717 eV

  energy without entropy =     -191.57434394  energy(sigma->0) =     -194.23700556


--------------------------------------------------------------------------------------------------------




--------------------------------------- Iteration      1(  25)  ---------------------------------------


    POTLOK:  cpu time    0.1533: real time    0.1638
    SETDIJ:  cpu time    0.0412: real time    0.0412
     EDDAV:  cpu time   51.6599: real time   51.6683
       DOS:  cpu time    0.0220: real time    0.0220
    CHARGE:  cpu time    2.3871: real time    2.3875
    MIXING:  cpu time    0.0165: real time    0.0165
    --------------------------------------------
      LOOP:  cpu time   54.2800: real time   54.2993

 eigenvalue-minimisations  : 11496
 total energy-change (2. order) :-0.2827070E-03  (-0.1161919E-04)
 number of electron     376.0000426 magnetization 
 augmentation part      152.4002696 magnetization 

 Broyden mixing:
  rms(total) = 0.49423E-02    rms(broyden)= 0.49417E-02
  rms(prec ) = 0.64575E-02
  weight for this iteration     100.00

 eigenvalues of (default mixing * dielectric matrix)
  average eigenvalue GAMMA=   0.8033
  3.0777  2.3482  2.3482  1.2230  1.2230  1.0213  0.6721  0.6721  0.5809  0.0993
  0.3967  0.3967  0.3310  0.2978  0.2797  0.1891  0.2439  0.2284  0.2179  0.2179

 Free energy of the ion-electron system (eV)
  ---------------------------------------------------
  alpha Z        PSCENC =       918.22725072
  Ewald energy   TEWEN  =     25334.02241149
  -Hartree energ DENC   =    -57860.91336675
  -exchange      EXHF   =         0.00000000
  -V(xc)+E(xc)   XCENC  =     -1000.85660830
  PAW double counting   =     35105.96890760   -32954.40198535
  entropy T*S    EENTRO =        -5.32516061
  eigenvalues    EBANDS =       104.51527479
  atomic energy  EATOM  =     30161.86332653
  Solvation  Ediel_sol  =         0.00000000
  ---------------------------------------------------
  free energy    TOTEN  =      -196.89994988 eV

  energy without entropy =     -191.57478927  energy(sigma->0) =     -194.23736957


--------------------------------------------------------------------------------------------------------




--------------------------------------- Iteration      1(  26)  ---------------------------------------


    POTLOK:  cpu time    0.1536: real time    0.1619
    SETDIJ:  cpu time    0.0411: real time    0.0411
     EDDAV:  cpu time   49.1794: real time   49.1956
       DOS:  cpu time    0.0222: real time    0.0222
    CHARGE:  cpu time    2.3866: real time    2.3964
    MIXING:  cpu time    0.0171: real time    0.0171
    --------------------------------------------
      LOOP:  cpu time   51.8002: real time   51.8343

 eigenvalue-minimisations  : 10752
 total energy-change (2. order) :-0.1759468E-03  (-0.7905371E-05)
 number of electron     376.0000426 magnetization 
 augmentation part      152.4007668 magnetization 

 Broyden mixing:
  rms(total) = 0.29178E-02    rms(broyden)= 0.29170E-02
  rms(prec ) = 0.38028E-02
  weight for this iteration     100.00

 eigenvalues of (default mixing * dielectric matrix)
  average eigenvalue GAMMA=   0.8225
  3.5632  2.3178  2.3178  1.2466  1.2466  1.0983  0.7580  0.7580  0.5662  0.5662
  0.0993  0.3882  0.3882  0.3175  0.2867  0.1891  0.2603  0.2417  0.2262  0.2172
  0.2186

 Free energy of the ion-electron system (eV)
  ---------------------------------------------------
  alpha Z        PSCENC =       918.22725072
  Ewald energy   TEWEN  =     25334.02241149
  -Hartree energ DENC   =    -57862.02537225
  -exchange      EXHF   =         0.00000000
  -V(xc)+E(xc)   XCENC  =     -1000.85210531
  PAW double counting   =     35104.50414311   -32952.94526998
  entropy T*S    EENTRO =        -5.32518129
  eigenvalues    EBANDS =       105.63067116
  atomic energy  EATOM  =     30161.86332653
  Solvation  Ediel_sol  =         0.00000000
  ---------------------------------------------------
  free energy    TOTEN  =      -196.90012582 eV

  energy without entropy =     -191.57494453  energy(sigma->0) =     -194.23753518


--------------------------------------------------------------------------------------------------------




--------------------------------------- Iteration      1(  27)  ---------------------------------------


[...]




--------------------------------------- Iteration    166(   3)  ---------------------------------------


    POTLOK:  cpu time    0.1463: real time    0.1463
    SETDIJ:  cpu time    0.0410: real time    0.0410
     EDDAV:  cpu time   54.4231: real time   54.4495
       DOS:  cpu time    0.0204: real time    0.0204
    CHARGE:  cpu time    2.3722: real time    2.3724
    MIXING:  cpu time    0.0062: real time    0.0062
    --------------------------------------------
      LOOP:  cpu time   57.0092: real time   57.0357

 eigenvalue-minimisations  : 12416
 total energy-change (2. order) :-0.2856599E-04  (-0.2077853E-04)
 number of electron     376.0000283 magnetization 
 augmentation part      152.7123252 magnetization 

 eigenvalues of (default mixing * dielectric matrix)
  average eigenvalue GAMMA=   0.5501
  0.8892  0.2109

  free energy =  -0.203440079166E+03  energy without entropy=  -0.198272810715E+03


--------------------------------------------------------------------------------------------------------




--------------------------------------- Iteration    166(   4)  ---------------------------------------


    POTLOK:  cpu time    0.1485: real time    0.1485
    SETDIJ:  cpu time    0.0408: real time    0.0408
     EDDAV:  cpu time   50.4023: real time   50.4159
       DOS:  cpu time    0.0202: real time    0.0202
    CHARGE:  cpu time    2.3692: real time    2.3694
    MIXING:  cpu time    0.0066: real time    0.0066
    --------------------------------------------
      LOOP:  cpu time   52.9876: real time   53.0014

 eigenvalue-minimisations  : 11176
 total energy-change (2. order) : 0.4035506E-04  (-0.2230377E-04)
 number of electron     376.0000283 magnetization 
 augmentation part      152.7126736 magnetization 

 eigenvalues of (default mixing * dielectric matrix)
  average eigenvalue GAMMA=   0.6183
  1.1853  0.5683  0.1013

  free energy =  -0.203440038811E+03  energy without entropy=  -0.198272994274E+03


--------------------------------------------------------------------------------------------------------




--------------------------------------- Iteration    166(   5)  ---------------------------------------


    POTLOK:  cpu time    0.1484: real time    0.1484
    SETDIJ:  cpu time    0.0408: real time    0.0408
     EDDAV:  cpu time   49.4508: real time   49.4591
       DOS:  cpu time    0.0206: real time    0.0206
    CHARGE:  cpu time    2.3545: real time    2.3547
    MIXING:  cpu time    0.0069: real time    0.0070
    --------------------------------------------
      LOOP:  cpu time   52.0221: real time   52.0306

 eigenvalue-minimisations  : 10904
 total energy-change (2. order) : 0.1049444E-04  (-0.1272904E-04)
 number of electron     376.0000283 magnetization 
 augmentation part      152.7132327 magnetization 

 eigenvalues of (default mixing * dielectric matrix)
  average eigenvalue GAMMA=   0.7072
  1.6701  0.8264  0.2387  0.0937

  free energy =  -0.203440028317E+03  energy without entropy=  -0.198273176405E+03


--------------------------------------------------------------------------------------------------------




--------------------------------------- Iteration    166(   6)  ---------------------------------------


    POTLOK:  cpu time    0.1540: real time    0.1540
    SETDIJ:  cpu time    0.0408: real time    0.0407
     EDDAV:  cpu time   40.5032: real time   40.5147
       DOS:  cpu time    0.0206: real time    0.0206
    CHARGE:  cpu time    2.3617: real time    2.3622
    MIXING:  cpu time    0.0074: real time    0.0074
    --------------------------------------------
      LOOP:  cpu time   43.0877: real time   43.0999

 eigenvalue-minimisations  :  8168
 total energy-change (2. order) : 0.1943593E-04  (-0.5991564E-05)
 number of electron     376.0000283 magnetization 
 augmentation part      152.7124889 magnetization 

 eigenvalues of (default mixing * dielectric matrix)
  average eigenvalue GAMMA=   0.6829
  1.8937  0.8836  0.3458  0.0939  0.1976

  free energy =  -0.203440008881E+03  energy without entropy=  -0.198273150622E+03


--------------------------------------------------------------------------------------------------------




--------------------------------------- Iteration    166(   7)  ---------------------------------------


    POTLOK:  cpu time    0.1480: real time    0.1480
    SETDIJ:  cpu time    0.0407: real time    0.0407
     EDDAV:  cpu time   37.5747: real time   37.5859
       DOS:  cpu time    0.0200: real time    0.0200
    --------------------------------------------
      LOOP:  cpu time   37.7832: real time   37.7943

 eigenvalue-minimisations  :  7216
 total energy-change (2. order) : 0.8931438E-05  (-0.2880680E-05)
 number of electron     376.0000283 magnetization 
 augmentation part      152.7124889 magnetization 

  free energy =  -0.203439999949E+03  energy without entropy=  -0.198272883002E+03


--------------------------------------------------------------------------------------------------------




------------------------ aborting loop because EDIFF is reached ----------------------------------------


    CHARGE:  cpu time    2.3188: real time    2.3194
    FORLOC:  cpu time    0.0767: real time    0.0767
    FORNL :  cpu time   10.7192: real time   10.7222
    STRESS:  cpu time   32.6169: real time   32.6439
    FORCOR:  cpu time    0.2326: real time    0.2327
    FORHAR:  cpu time    0.0995: real time    0.0995
    MIXING:  cpu time    0.0080: real time    0.0081
    OFIELD:  cpu time    0.0001: real time    0.0001

  FORCE on cell =-STRESS in cart. coord.  units (eV):
  Direction    XX          YY          ZZ          XY          YZ          ZX
  --------------------------------------------------------------------------------------
  Alpha Z   918.22725   918.22725   918.22725
  Ewald   44172.44684 44702.98038-64561.51582  -121.91912  -131.08335    43.09526
  Hartree 53280.94993 53561.20098-49984.11036   -64.23616   -61.65565    20.29145
  E(xc)   -1957.21331 -1956.08457 -1965.85964    -0.27019    -0.44491     0.06442
  Local  ************************107819.26768   176.81086   179.97770   -61.93638
  n-local  -197.64614  -203.03671  -239.15506     1.48104     0.29327    -0.45283
  augment  2668.29659  2668.83786  2715.63495    -0.21011     1.36874     0.21695
  Kinetic  5214.65388  5183.21163  5296.81077     8.59238    10.88958    -1.65919
  Fock        0.00000     0.00000     0.00000     0.00000     0.00000     0.00000
  -------------------------------------------------------------------------------------
  Total     -10.50506    -9.80684    -0.70024     0.24871    -0.65461    -0.38032
  in kB     -17.03275   -15.90066    -1.13536     0.40325    -1.06138    -0.61664
  external pressure =      -11.36 kB  Pullay stress =        0.00 kB



--------------------------------------------------------------------------------------------------------



  FREE ENERGIE OF THE ION-ELECTRON SYSTEM (eV)
  ---------------------------------------------------
  free  energy   TOTEN  =      -203.43999995 eV

  energy  without entropy=     -198.27288300  energy(sigma->0) =     -200.85644148
 
 d Force = 0.9815075E-03[ 0.352E-03, 0.161E-02]  d Energy = 0.9747663E-03 0.674E-05
 d Force = 0.1169031E+01[ 0.117E+01, 0.117E+01]  d Ewald  = 0.1169029E+01 0.209E-05


--------------------------------------------------------------------------------------------------------


    POTLOK:  cpu time    0.1921: real time    0.1921


--------------------------------------------------------------------------------------------------------


 NEB: the previous image is higher in energy: T
 NEB: the next image is higher in energy    : T
 NEB: image is at an extrema
 NEB: diff energy (min, max):     0.257302    0.693611

 NEB: Tangent
 ----------------------------------------------
     -0.02388     -0.02796     -0.08070
      0.00000      0.00000      0.00000
     -0.00270     -0.00529     -0.00357
     -0.02388     -0.02920     -0.02216
      0.00000      0.00000      0.00000
     -0.00330     -0.00563     -0.00356
     -0.01496     -0.01941      0.00273
      0.00000      0.00000      0.00000
     -0.00976     -0.00509     -0.00955
      0.01024     -0.03669      0.00234
      0.00000      0.00000      0.00000
     -0.00498     -0.00772      0.00464
     -0.02361     -0.05352     -0.00855
      0.00000      0.00000      0.00000
     -0.00021     -0.00633     -0.00794
     -0.01691     -0.02713      0.00625
      0.00000      0.00000      0.00000
     -0.00424     -0.00868     -0.00083
     -0.01027     -0.02498     -0.01125
      0.00000      0.00000      0.00000
     -0.00376     -0.00834      0.00085
     -0.01325     -0.03213      0.00815
      0.00000      0.00000      0.00000
     -0.00584     -0.00859      0.00379
     -0.01807     -0.03377      0.00292
      0.00000      0.00000      0.00000
     -0.00563     -0.01299     -0.00748
      0.00000      0.00000      0.00000
      0.00000      0.00000      0.00000
      0.00000      0.00000      0.00000
      0.00000      0.00000      0.00000
      0.00000      0.00000      0.00000
      0.00000      0.00000      0.00000
      0.00000      0.00000      0.00000
      0.00000      0.00000      0.00000
      0.00000      0.00000      0.00000
      0.00772      0.30987      0.62318
      0.05026     -0.06603      0.59543
      0.27979      0.02755      0.23244

 NEB: forces: par spring, perp REAL, dneb     0.045879    0.347657    0.000000
 NEB: distance to prev, next image, angle between     1.703052    1.693877  101.651532
 NEB: projections on to tangent (spring, REAL)    -0.045879    0.180827

 stress matrix after NEB project (eV)
    -10.50506      0.24871     -0.38032
      0.24871     -9.80684     -0.65461
     -0.38032     -0.65461     -0.70024
  FORCES: max atom, RMS     0.240931    0.056152
  FORCE total and by dimension    0.350671    0.237991
  Stress total and by dimension   14.432278   10.505056
 
 OPT: Flag T
 OPT: QM Step


--------------------------------------------------------------------------------------------------------


    WAVPRE:  cpu time  629.0843: real time  629.1713
    FEWALD:  cpu time    0.0045: real time    0.0045

 real space projection operators:
  total allocation   :       9687.89 KBytes
  max/ min on nodes  :       4847.02       4840.88

    ORTHCH:  cpu time    4.6910: real time    4.6914
     LOOP+:  cpu time 1028.8996: real time 1029.3572


--------------------------------------- Iteration    167(   1)  ---------------------------------------


    POTLOK:  cpu time    0.1563: real time    0.1631
    SETDIJ:  cpu time    0.0405: real time    0.0405
     EDDAV:  cpu time   50.0551: real time   50.0626
       DOS:  cpu time    0.0208: real time    0.0208
    CHARGE:  cpu time    2.3831: real time    2.3833
    MIXING:  cpu time    0.0056: real time    0.0056
    --------------------------------------------
      LOOP:  cpu time   52.6615: real time   52.6760

 eigenvalue-minimisations  : 11136
 total energy-change (2. order) :-0.7288356E-03  (-0.1076639E-01)
 number of electron     376.0000282 magnetization 
 augmentation part      152.7138830 magnetization 

  free energy =  -0.203440737716E+03  energy without entropy=  -0.198274122023E+03


--------------------------------------------------------------------------------------------------------




--------------------------------------- Iteration    167(   2)  ---------------------------------------


    POTLOK:  cpu time    0.1562: real time    0.1562
    SETDIJ:  cpu time    0.0406: real time    0.0406
     EDDAV:  cpu time   50.6139: real time   50.6413
       DOS:  cpu time    0.0202: real time    0.0202
    CHARGE:  cpu time    2.3832: real time    2.3837
    MIXING:  cpu time    0.0058: real time    0.0058
    --------------------------------------------
      LOOP:  cpu time   53.2201: real time   53.2480

 eigenvalue-minimisations  : 11280
 total energy-change (2. order) :-0.3032076E-03  (-0.3336757E-03)
 number of electron     376.0000282 magnetization 
 augmentation part      152.7131292 magnetization 

 eigenvalues of (default mixing * dielectric matrix)
  average eigenvalue GAMMA=   0.5967
  0.5967

  free energy =  -0.203441040924E+03  energy without entropy=  -0.198274270938E+03


--------------------------------------------------------------------------------------------------------




--------------------------------------- Iteration    167(   3)  ---------------------------------------


    POTLOK:  cpu time    0.1468: real time    0.1468
    SETDIJ:  cpu time    0.0405: real time    0.0405
     EDDAV:  cpu time   53.8480: real time   53.8729
       DOS:  cpu time    0.0201: real time    0.0201
    CHARGE:  cpu time    2.3815: real time    2.3820
    MIXING:  cpu time    0.0062: real time    0.0062
    --------------------------------------------
      LOOP:  cpu time   56.4429: real time   56.4683

 eigenvalue-minimisations  : 12192
 total energy-change (2. order) : 0.2124305E-04  (-0.1248061E-04)
 number of electron     376.0000282 magnetization 
 augmentation part      152.7132938 magnetization 

 eigenvalues of (default mixing * dielectric matrix)
  average eigenvalue GAMMA=   0.5798
  0.8087  0.3508

  free energy =  -0.203441019681E+03  energy without entropy=  -0.198274473975E+03


--------------------------------------------------------------------------------------------------------




--------------------------------------- Iteration    167(   4)  ---------------------------------------


    POTLOK:  cpu time    0.1464: real time    0.1464
    SETDIJ:  cpu time    0.0406: real time    0.0406
     EDDAV:  cpu time   50.9156: real time   50.9572
       DOS:  cpu time    0.0194: real time    0.0194
    CHARGE:  cpu time    2.3619: real time    2.3628
    MIXING:  cpu time    0.0067: real time    0.0067
    --------------------------------------------
      LOOP:  cpu time   53.4906: real time   53.5331

 eigenvalue-minimisations  : 11312
 total energy-change (2. order) : 0.2860917E-05  (-0.1262334E-04)
 number of electron     376.0000282 magnetization 
 augmentation part      152.7134438 magnetization 

 eigenvalues of (default mixing * dielectric matrix)
  average eigenvalue GAMMA=   0.6633
  1.1684  0.6311  0.1903

  free energy =  -0.203441016820E+03  energy without entropy=  -0.198274163271E+03


--------------------------------------------------------------------------------------------------------




--------------------------------------- Iteration    167(   5)  ---------------------------------------


    POTLOK:  cpu time    0.1486: real time    0.1486
    SETDIJ:  cpu time    0.0407: real time    0.0407
     EDDAV:  cpu time   40.4386: real time   40.4438
       DOS:  cpu time    0.0202: real time    0.0202
    CHARGE:  cpu time    2.3861: real time    2.3881
    MIXING:  cpu time    0.0070: real time    0.0070
    --------------------------------------------
      LOOP:  cpu time   43.0411: real time   43.0484

 eigenvalue-minimisations  :  8152
 total energy-change (2. order) :-0.3703361E-04  (-0.1836737E-04)
 number of electron     376.0000282 magnetization 
 augmentation part      152.7134343 magnetization 

 eigenvalues of (default mixing * dielectric matrix)
  average eigenvalue GAMMA=   0.7110
  1.7801  0.7322  0.2349  0.0969

  free energy =  -0.203441053854E+03  energy without entropy=  -0.198274358460E+03


--------------------------------------------------------------------------------------------------------




--------------------------------------- Iteration    167(   6)  ---------------------------------------


    POTLOK:  cpu time    0.1482: real time    0.1482
    SETDIJ:  cpu time    0.0545: real time    0.0545
     EDDAV:  cpu time   38.3808: real time   38.3863
       DOS:  cpu time    0.0200: real time    0.0200
    CHARGE:  cpu time    2.3683: real time    2.3686
    MIXING:  cpu time    0.0074: real time    0.0074
    --------------------------------------------
      LOOP:  cpu time   40.9794: real time   40.9852

 eigenvalue-minimisations  :  7576
 total energy-change (2. order) : 0.6326475E-04  (-0.1124709E-04)
 number of electron     376.0000282 magnetization 
 augmentation part      152.7129986 magnetization 

 eigenvalues of (default mixing * dielectric matrix)
  average eigenvalue GAMMA=   0.7103
  2.0149  0.7629  0.4556  0.2240  0.0940

  free energy =  -0.203440990589E+03  energy without entropy=  -0.198274316197E+03


--------------------------------------------------------------------------------------------------------




--------------------------------------- Iteration    167(   7)  ---------------------------------------


    POTLOK:  cpu time    0.1487: real time    0.1487
    SETDIJ:  cpu time    0.0409: real time    0.0409
     EDDAV:  cpu time   36.1200: real time   36.1245
       DOS:  cpu time    0.0204: real time    0.0204
    --------------------------------------------
      LOOP:  cpu time   36.3299: real time   36.3343

 eigenvalue-minimisations  :  6840
 total energy-change (2. order) : 0.2164234E-06  (-0.2364546E-05)
 number of electron     376.0000282 magnetization 
 augmentation part      152.7129986 magnetization 

  free energy =  -0.203440990373E+03  energy without entropy=  -0.198274278916E+03


--------------------------------------------------------------------------------------------------------




------------------------ aborting loop because EDIFF is reached ----------------------------------------


    CHARGE:  cpu time    2.3678: real time    2.3684
    FORLOC:  cpu time    0.0773: real time    0.0773
    FORNL :  cpu time   10.8176: real time   10.8184
    STRESS:  cpu time   32.4756: real time   32.4910
    FORCOR:  cpu time    0.2317: real time    0.2317
    FORHAR:  cpu time    0.1001: real time    0.1002
    MIXING:  cpu time    0.0077: real time    0.0077
    OFIELD:  cpu time    0.0001: real time    0.0001

  FORCE on cell =-STRESS in cart. coord.  units (eV):
  Direction    XX          YY          ZZ          XY          YZ          ZX
  --------------------------------------------------------------------------------------
  Alpha Z   918.22725   918.22725   918.22725
  Ewald   44170.35894 44701.99644-64559.54464  -121.11135  -131.97788    43.10896
  Hartree 53280.50043 53561.35721-49983.74968   -63.72584   -61.67551    20.17424
  E(xc)   -1957.22156 -1956.09089 -1965.86824    -0.26823    -0.44840     0.06512
  Local  ************************107816.99143   175.51949   180.69863   -61.78405
  n-local  -197.65665  -203.04371  -239.17204     1.48655     0.32792    -0.46978
  augment  2668.29331  2668.83262  2715.63511    -0.21221     1.37962     0.21704
  Kinetic  5214.74294  5183.20323  5296.86215     8.51725    10.90767    -1.64917
  Fock        0.00000     0.00000     0.00000     0.00000     0.00000     0.00000
  -------------------------------------------------------------------------------------
  Total     -10.49096    -9.78139    -0.61866     0.20566    -0.78795    -0.33763
  in kB     -17.00989   -15.85940    -1.00308     0.33345    -1.27758    -0.54743
  external pressure =      -11.29 kB  Pullay stress =        0.00 kB



--------------------------------------------------------------------------------------------------------



  FREE ENERGIE OF THE ION-ELECTRON SYSTEM (eV)
  ---------------------------------------------------
  free  energy   TOTEN  =      -203.44099037 eV

  energy  without entropy=     -198.27427892  energy(sigma->0) =     -200.85763464
 
 d Force = 0.9862792E-03[ 0.425E-03, 0.155E-02]  d Energy = 0.9904230E-03-0.414E-05
 d Force = 0.1100673E+01[ 0.110E+01, 0.110E+01]  d Ewald  = 0.1100674E+01-0.879E-06


--------------------------------------------------------------------------------------------------------


    POTLOK:  cpu time    0.1909: real time    0.1910


--------------------------------------------------------------------------------------------------------


