 vasp.5.4.4.18Apr17-6-g9f103f2a35 (build Aug 09 2024 17:42:55) complex          
  
 POSCAR found type information on POSCAR  Pd C  O 
 02/POSCAR found :  3 types and      39 ions
 scaLAPACK will be used
 LDA part: xc-table for Pade appr. of Perdew
 POSCAR found type information on POSCAR  Pd C  O 
 00/POSCAR found :  3 types and      39 ions
 POSCAR found type information on POSCAR  Pd C  O 
 05/POSCAR found :  3 types and      39 ions
 Jacobian:    18.3422329801906     
 POSCAR, INCAR and KPOINTS ok, starting setup
 FFT: planning ...
 WAVECAR not read
 entering main loop
       N       E                     dE             d eps       ncg     rms          rms(c)
DAV:   1     0.210222698025E+04    0.21022E+04   -0.15207E+05 11144   0.114E+03
DAV:   2    -0.903757504643E+02   -0.21926E+04   -0.20602E+04 12088   0.289E+02
DAV:   3    -0.205105824687E+03   -0.11473E+03   -0.10324E+03 12520   0.605E+01
DAV:   4    -0.208781792638E+03   -0.36760E+01   -0.36091E+01 11976   0.110E+01
DAV:   5    -0.208920796218E+03   -0.13900E+00   -0.13861E+00 14368   0.209E+00    0.424E+01
DAV:   6    -0.207459867937E+03    0.14609E+01   -0.41674E+01 12904   0.248E+01    0.363E+01
DAV:   7    -0.205011045956E+03    0.24488E+01   -0.27617E+01 15720   0.169E+01    0.252E+01
DAV:   8    -0.223701443869E+03   -0.18690E+02   -0.30103E+01 11840   0.388E+01    0.469E+01
DAV:   9    -0.205262873649E+03    0.18439E+02   -0.22659E+01 11776   0.279E+01    0.283E+01
DAV:  10    -0.198285487506E+03    0.69774E+01   -0.11507E+01 11808   0.161E+01    0.102E+01
DAV:  11    -0.198030250584E+03    0.25524E+00   -0.61930E+00 12144   0.123E+01    0.110E+01
DAV:  12    -0.197142285464E+03    0.88797E+00   -0.29993E+00 11560   0.858E+00    0.568E+00
DAV:  13    -0.197003363135E+03    0.13892E+00   -0.61975E-01 11800   0.407E+00    0.383E+00
DAV:  14    -0.196961117610E+03    0.42246E-01   -0.37523E-01 11360   0.293E+00    0.219E+00
DAV:  15    -0.196934535085E+03    0.26583E-01   -0.19417E-01 11632   0.224E+00    0.192E+00
DAV:  16    -0.196905979560E+03    0.28556E-01   -0.83265E-02 11656   0.147E+00    0.959E-01
DAV:  17    -0.196900341544E+03    0.56380E-02   -0.26207E-02 11464   0.754E-01    0.538E-01
DAV:  18    -0.196898596202E+03    0.17453E-02   -0.89374E-03 11704   0.453E-01    0.317E-01
DAV:  19    -0.196898711808E+03   -0.11561E-03   -0.31219E-03 11632   0.268E-01    0.225E-01
DAV:  20    -0.196899071838E+03   -0.36003E-03   -0.21398E-03 11480   0.233E-01    0.212E-01
DAV:  21    -0.196899141497E+03   -0.69659E-04   -0.10991E-03 11536   0.169E-01    0.141E-01
DAV:  22    -0.196899277422E+03   -0.13593E-03   -0.52102E-04 12016   0.986E-02    0.712E-02
DAV:  23    -0.196899512250E+03   -0.23483E-03   -0.38478E-04 11504   0.843E-02    0.792E-02
DAV:  24    -0.196899667170E+03   -0.15492E-03   -0.14312E-04 11888   0.557E-02    0.420E-02
DAV:  25    -0.196899949877E+03   -0.28271E-03   -0.11619E-04 11496   0.461E-02    0.494E-02
DAV:  26    -0.196900125824E+03   -0.17595E-03   -0.79054E-05 10752   0.430E-02    0.292E-02
DAV:  27    -0.196900221641E+03   -0.95817E-04   -0.29189E-05  7976   0.247E-02    0.230E-02
DAV:  28    -0.196900299860E+03   -0.78219E-04   -0.16021E-05  7072   0.183E-02    0.127E-02
DAV:  29    -0.196900354695E+03   -0.54836E-04   -0.10572E-05  7040   0.135E-02    0.134E-02
DAV:  30    -0.196900399239E+03   -0.44544E-04   -0.72026E-06  7032   0.102E-02    0.779E-03
DAV:  31    -0.196900412131E+03   -0.12892E-04   -0.26793E-06  6896   0.581E-03    0.583E-03
DAV:  32    -0.196900421210E+03   -0.90790E-05   -0.19346E-06  7008   0.452E-03
   1 F= -.19690042E+03 E0= -.19423759E+03  d E =-.196900E+03
quench:  g(F)=  0.000E+00 g(S)=  0.000E+00 dE (1.order)= 0.000E+00
 bond charge predicted
       N       E                     dE             d eps       ncg     rms          rms(c)
DAV:   1    -0.197305516406E+03   -0.40510E+00   -0.18374E+01 11136   0.925E+00    0.929E-01
DAV:   2    -0.197359118970E+03   -0.53603E-01   -0.55498E-01 11648   0.140E+00    0.958E-01
DAV:   3    -0.197353148453E+03    0.59705E-02   -0.24813E-02 12392   0.676E-01    0.674E-01
DAV:   4    -0.197355292449E+03   -0.21440E-02   -0.25835E-02 12440   0.731E-01    0.805E-01
DAV:   5    -0.197353678157E+03    0.16143E-02   -0.22198E-02 12808   0.625E-01    0.719E-01
DAV:   6    -0.197350180348E+03    0.34978E-02   -0.10069E-02 13264   0.408E-01    0.351E-01
DAV:   7    -0.197349855283E+03    0.32507E-03   -0.37347E-03 11680   0.323E-01    0.234E-01
DAV:   8    -0.197349675059E+03    0.18022E-03   -0.17556E-03 12056   0.214E-01    0.171E-01
DAV:   9    -0.197349428541E+03    0.24652E-03   -0.75669E-04 11680   0.138E-01    0.525E-02
DAV:  10    -0.197349437943E+03   -0.94013E-05   -0.13864E-04 11960   0.550E-02    0.500E-02
DAV:  11    -0.197349431000E+03    0.69423E-05   -0.67918E-05 10680   0.417E-02
   2 F= -.19734943E+03 E0= -.19469078E+03  d E =-.449010E+00
quench:  g(F)=  0.000E+00 g(S)=  0.000E+00 dE (1.order)= 0.000E+00
 bond charge predicted
       N       E                     dE             d eps       ncg     rms          rms(c)
DAV:   1    -0.198350629261E+03   -0.10012E+01   -0.87608E+01 11224   0.193E+01    0.226E+00
DAV:   2    -0.198690145595E+03   -0.33952E+00   -0.32024E+00 12040   0.319E+00    0.308E+00
DAV:   3    -0.198754322683E+03   -0.64177E-01   -0.68125E-01 12840   0.320E+00    0.406E+00
DAV:   4    -0.198632127171E+03    0.12220E+00   -0.33400E-01 12624   0.248E+00    0.178E+00
DAV:   5    -0.198612855148E+03    0.19272E-01   -0.72133E-02 12424   0.120E+00    0.974E-01
DAV:   6    -0.198611156326E+03    0.16988E-02   -0.37900E-02 11680   0.944E-01    0.864E-01
DAV:   7    -0.198605790712E+03    0.53656E-02   -0.22273E-02 11912   0.860E-01    0.576E-01
DAV:   8    -0.198604727234E+03    0.10635E-02   -0.10421E-02 11824   0.536E-01    0.455E-01
DAV:   9    -0.198602998449E+03    0.17288E-02   -0.38970E-03 11664   0.332E-01    0.160E-01
DAV:  10    -0.198602979979E+03    0.18470E-04   -0.13644E-03 11480   0.169E-01    0.118E-01
DAV:  11    -0.198602960978E+03    0.19001E-04   -0.42867E-04 11640   0.995E-02    0.763E-02
DAV:  12    -0.198602952137E+03    0.88411E-05   -0.17055E-04 11664   0.661E-02    0.427E-02
DAV:  13    -0.198603016497E+03   -0.64361E-04   -0.73383E-05 11056   0.378E-02    0.308E-02
DAV:  14    -0.198603042691E+03   -0.26194E-04   -0.34374E-05  7760   0.305E-02    0.154E-02
DAV:  15    -0.198603086124E+03   -0.43434E-04   -0.10663E-05  7000   0.139E-02    0.118E-02
DAV:  16    -0.198603108366E+03   -0.22241E-04   -0.74515E-06  6808   0.138E-02    0.104E-02
DAV:  17    -0.198603135789E+03   -0.27423E-04   -0.44802E-06  6888   0.877E-03    0.597E-03
DAV:  18    -0.198603151904E+03   -0.16115E-04   -0.24654E-06  6736   0.678E-03    0.558E-03
DAV:  19    -0.198603173544E+03   -0.21641E-04   -0.27180E-06  6856   0.547E-03    0.377E-03
DAV:  20    -0.198603179583E+03   -0.60386E-05   -0.99867E-07  6768   0.375E-03
   3 F= -.19860318E+03 E0= -.19595184E+03  d E =-.125375E+01
quench:  g(F)=  0.000E+00 g(S)=  0.000E+00 dE (1.order)= 0.000E+00
 bond charge predicted
       N       E                     dE             d eps       ncg     rms          rms(c)
DAV:   1    -0.199500471290E+03   -0.89730E+00   -0.17693E+02 11136   0.235E+01    0.503E+00
DAV:   2    -0.200801329419E+03   -0.13009E+01   -0.83836E+00 11664   0.567E+00    0.993E+00
DAV:   3    -0.200432780352E+03    0.36855E+00   -0.33635E+00 12120   0.605E+00    0.668E+00
DAV:   4    -0.200352310943E+03    0.80469E-01   -0.14956E+00 12432   0.549E+00    0.591E+00
DAV:   5    -0.200036738241E+03    0.31557E+00   -0.51584E-01 12712   0.347E+00    0.186E+00
DAV:   6    -0.200044511116E+03   -0.77729E-02   -0.21995E-01 11552   0.233E+00    0.203E+00
DAV:   7    -0.200017779215E+03    0.26732E-01   -0.12285E-01 11472   0.192E+00    0.143E+00
DAV:   8    -0.199997860807E+03    0.19918E-01   -0.41357E-02 11696   0.117E+00    0.581E-01
DAV:   9    -0.199998007104E+03   -0.14630E-03   -0.16284E-02 11432   0.637E-01    0.592E-01
DAV:  10    -0.199994789313E+03    0.32178E-02   -0.70739E-03 11528   0.453E-01    0.211E-01
DAV:  11    -0.199994843732E+03   -0.54419E-04   -0.19575E-03 11704   0.214E-01    0.191E-01
DAV:  12    -0.199994640806E+03    0.20293E-03   -0.78726E-04 11688   0.145E-01    0.678E-02
DAV:  13    -0.199994723825E+03   -0.83020E-04   -0.25454E-04 11736   0.780E-02    0.599E-02
DAV:  14    -0.199994856147E+03   -0.13232E-03   -0.12227E-04 11496   0.538E-02    0.302E-02
DAV:  15    -0.199994928789E+03   -0.72642E-04   -0.53306E-05  9024   0.366E-02    0.333E-02
DAV:  16    -0.199995035737E+03   -0.10695E-03   -0.33876E-05  7688   0.279E-02    0.157E-02
DAV:  17    -0.199995081073E+03   -0.45336E-04   -0.12764E-05  7304   0.169E-02    0.131E-02
DAV:  18    -0.199995151777E+03   -0.70704E-04   -0.10995E-05  7136   0.124E-02    0.834E-03
DAV:  19    -0.199995177412E+03   -0.25636E-04   -0.43224E-06  6976   0.899E-03    0.633E-03
DAV:  20    -0.199995213522E+03   -0.36109E-04   -0.43114E-06  6872   0.595E-03    0.418E-03
DAV:  21    -0.199995221597E+03   -0.80757E-05   -0.13620E-06  6872   0.447E-03
   4 F= -.19999522E+03 E0= -.19735169E+03  d E =-.139204E+01
quench:  g(F)=  0.000E+00 g(S)=  0.000E+00 dE (1.order)= 0.000E+00
 bond charge predicted
       N       E                     dE             d eps       ncg     rms          rms(c)
DAV:   1    -0.200110362026E+03   -0.11515E+00   -0.96541E+00 11136   0.489E+00    0.746E-01
DAV:   2    -0.200130373648E+03   -0.20012E-01   -0.20265E-01 11360   0.832E-01    0.942E-01
DAV:   3    -0.200130666568E+03   -0.29292E-03   -0.32353E-02 11840   0.702E-01    0.927E-01
DAV:   4    -0.200131968080E+03   -0.13015E-02   -0.31973E-02 11824   0.830E-01    0.914E-01
DAV:   5    -0.200126195080E+03    0.57730E-02   -0.15637E-02 12816   0.637E-01    0.502E-01
DAV:   6    -0.200125252714E+03    0.94237E-03   -0.63021E-03 11720   0.439E-01    0.354E-01
DAV:   7    -0.200124931247E+03    0.32147E-03   -0.36661E-03 11952   0.330E-01    0.274E-01
DAV:   8    -0.200124206080E+03    0.72517E-03   -0.12887E-03 11528   0.206E-01    0.697E-02
DAV:   9    -0.200124193814E+03    0.12266E-04   -0.25128E-04 11416   0.737E-02    0.409E-02
DAV:  10    -0.200124209721E+03   -0.15907E-04   -0.56149E-05  9264   0.367E-02    0.282E-02
DAV:  11    -0.200124217319E+03   -0.75984E-05   -0.26710E-05  7296   0.276E-02
   5 F= -.20012422E+03 E0= -.19748189E+03  d E =-.128996E+00
quench:  g(F)=  0.000E+00 g(S)=  0.000E+00 dE (1.order)= 0.000E+00
 bond charge predicted
       N       E                     dE             d eps       ncg     rms          rms(c)
DAV:   1    -0.200277120070E+03   -0.15291E+00   -0.26271E+01 11136   0.811E+00    0.972E-01
DAV:   2    -0.200333516830E+03   -0.56397E-01   -0.55425E-01 11208   0.133E+00    0.117E+00
DAV:   3    -0.200338291421E+03   -0.47746E-02   -0.61313E-02 11976   0.105E+00    0.139E+00
DAV:   4    -0.200327448159E+03    0.10843E-01   -0.43375E-02 11728   0.943E-01    0.752E-01
DAV:   5    -0.200327741702E+03   -0.29354E-03   -0.17266E-02 12168   0.670E-01    0.740E-01
DAV:   6    -0.200325972017E+03    0.17697E-02   -0.14954E-02 12056   0.617E-01    0.564E-01
DAV:   7    -0.200324706626E+03    0.12654E-02   -0.69404E-03 11488   0.463E-01    0.347E-01
DAV:   8    -0.200323616583E+03    0.10900E-02   -0.28938E-03 11624   0.298E-01    0.112E-01
DAV:   9    -0.200323636106E+03   -0.19523E-04   -0.69155E-04 11528   0.130E-01    0.110E-01
DAV:  10    -0.200323527153E+03    0.10895E-03   -0.23017E-04 11536   0.817E-02    0.381E-02
DAV:  11    -0.200323525905E+03    0.12485E-05   -0.60779E-05  9232   0.378E-02
   6 F= -.20032353E+03 E0= -.19768397E+03  d E =-.199309E+00
quench:  g(F)=  0.000E+00 g(S)=  0.000E+00 dE (1.order)= 0.000E+00
 bond charge predicted
       N       E                     dE             d eps       ncg     rms          rms(c)
DAV:   1    -0.200427387729E+03   -0.10386E+00   -0.51119E+01 11136   0.110E+01    0.146E+00
DAV:   2    -0.200530413834E+03   -0.10303E+00   -0.10913E+00 11296   0.178E+00    0.173E+00
DAV:   3    -0.200539633519E+03   -0.92197E-02   -0.13453E-01 11896   0.152E+00    0.197E+00
DAV:   4    -0.200531528372E+03    0.81051E-02   -0.12899E-01 11808   0.162E+00    0.162E+00
DAV:   5    -0.200513921326E+03    0.17607E-01   -0.47062E-02 12544   0.113E+00    0.949E-01
DAV:   6    -0.200511854887E+03    0.20664E-02   -0.22042E-02 11912   0.805E-01    0.724E-01
DAV:   7    -0.200510272790E+03    0.15821E-02   -0.15105E-02 11720   0.671E-01    0.546E-01
DAV:   8    -0.200507440609E+03    0.28322E-02   -0.60493E-03 11520   0.441E-01    0.148E-01
DAV:   9    -0.200507483232E+03   -0.42623E-04   -0.13820E-03 11312   0.181E-01    0.126E-01
DAV:  10    -0.200507397408E+03    0.85824E-04   -0.38264E-04 11544   0.107E-01    0.505E-02
DAV:  11    -0.200507465897E+03   -0.68489E-04   -0.12251E-04 11536   0.546E-02    0.501E-02
DAV:  12    -0.200507548707E+03   -0.82810E-04   -0.76958E-05  9784   0.414E-02    0.259E-02
DAV:  13    -0.200507592179E+03   -0.43472E-04   -0.26192E-05  7496   0.265E-02    0.160E-02
DAV:  14    -0.200507634276E+03   -0.42097E-04   -0.95071E-06  7024   0.141E-02    0.777E-03
DAV:  15    -0.200507655613E+03   -0.21337E-04   -0.30442E-06  6904   0.766E-03    0.503E-03
DAV:  16    -0.200507698505E+03   -0.42892E-04   -0.41187E-06  6920   0.585E-03    0.550E-03
DAV:  17    -0.200507722786E+03   -0.24281E-04   -0.26837E-06  7040   0.535E-03    0.288E-03
DAV:  18    -0.200507746858E+03   -0.24072E-04   -0.31361E-06  6944   0.374E-03    0.311E-03
DAV:  19    -0.200507752258E+03   -0.54003E-05   -0.99582E-07  6888   0.317E-03
   7 F= -.20050775E+03 E0= -.19787158E+03  d E =-.184226E+00
quench:  g(F)=  0.000E+00 g(S)=  0.000E+00 dE (1.order)= 0.000E+00
 bond charge predicted
       N       E                     dE             d eps       ncg     rms          rms(c)
DAV:   1    -0.200510725440E+03   -0.29786E-02   -0.32146E+01 11136   0.839E+00    0.201E+00
DAV:   2    -0.200598468647E+03   -0.87743E-01   -0.79306E-01 11488   0.172E+00    0.251E+00
DAV:   3    -0.200619643418E+03   -0.21175E-01   -0.35663E-01 12256   0.227E+00    0.290E+00
DAV:   4    -0.200599717942E+03    0.19925E-01   -0.25681E-01 12344   0.232E+00    0.246E+00
DAV:   5    -0.200547343840E+03    0.52374E-01   -0.95331E-02 13088   0.150E+00    0.866E-01
DAV:   6    -0.200546348270E+03    0.99557E-03   -0.37431E-02 11560   0.989E-01    0.741E-01
DAV:   7    -0.200542799107E+03    0.35492E-02   -0.15512E-02 11488   0.688E-01    0.488E-01
DAV:   8    -0.200540492220E+03    0.23069E-02   -0.47904E-03 11696   0.401E-01    0.167E-01
DAV:   9    -0.200540511146E+03   -0.18926E-04   -0.14233E-03 11512   0.188E-01    0.158E-01
DAV:  10    -0.200540314730E+03    0.19642E-03   -0.58842E-04 11576   0.129E-01    0.649E-02
DAV:  11    -0.200540342901E+03   -0.28171E-04   -0.21540E-04 11648   0.744E-02    0.643E-02
DAV:  12    -0.200540343119E+03   -0.21787E-06   -0.95977E-05 10592   0.512E-02
   8 F= -.20054034E+03 E0= -.19790590E+03  d E =-.325909E-01
quench:  g(F)=  0.000E+00 g(S)=  0.000E+00 dE (1.order)= 0.000E+00
 bond charge predicted
       N       E                     dE             d eps       ncg     rms          rms(c)
DAV:   1    -0.200639971116E+03   -0.99628E-01   -0.29300E+01 11136   0.711E+00    0.220E+00
DAV:   2    -0.200720987758E+03   -0.81017E-01   -0.75170E-01 11608   0.202E+00    0.303E+00
DAV:   3    -0.200713379411E+03    0.76083E-02   -0.37267E-01 12064   0.260E+00    0.290E+00
DAV:   4    -0.200700488677E+03    0.12891E-01   -0.31268E-01 12568   0.256E+00    0.263E+00
DAV:   5    -0.200650456338E+03    0.50032E-01   -0.11625E-01 12728   0.173E+00    0.140E+00
DAV:   6    -0.200635796849E+03    0.14659E-01   -0.44465E-02 11664   0.115E+00    0.691E-01
DAV:   7    -0.200633815559E+03    0.19813E-02   -0.16035E-02 11824   0.670E-01    0.518E-01
DAV:   8    -0.200631351090E+03    0.24645E-02   -0.57336E-03 11664   0.426E-01    0.161E-01
DAV:   9    -0.200631334621E+03    0.16469E-04   -0.12932E-03 11416   0.180E-01    0.123E-01
DAV:  10    -0.200631392068E+03   -0.57447E-04   -0.42307E-04 11552   0.103E-01    0.669E-02
DAV:  11    -0.200631517138E+03   -0.12507E-03   -0.21712E-04 11552   0.775E-02    0.588E-02
DAV:  12    -0.200631692405E+03   -0.17527E-03   -0.10807E-04 10832   0.502E-02    0.291E-02
DAV:  13    -0.200631803621E+03   -0.11122E-03   -0.41074E-05  8744   0.310E-02    0.193E-02
DAV:  14    -0.200631955444E+03   -0.15182E-03   -0.22498E-05  7584   0.179E-02    0.108E-02
DAV:  15    -0.200632032305E+03   -0.76860E-04   -0.96406E-06  7368   0.133E-02    0.100E-02
DAV:  16    -0.200632151488E+03   -0.11918E-03   -0.15084E-05  7584   0.107E-02    0.776E-03
DAV:  17    -0.200632218821E+03   -0.67334E-04   -0.79513E-06  7336   0.810E-03    0.438E-03
DAV:  18    -0.200632261430E+03   -0.42609E-04   -0.52661E-06  7136   0.533E-03    0.457E-03
DAV:  19    -0.200632278622E+03   -0.17192E-04   -0.20900E-06  7088   0.432E-03    0.273E-03
DAV:  20    -0.200632292942E+03   -0.14320E-04   -0.21699E-06  6864   0.301E-03    0.232E-03
DAV:  21    -0.200632296005E+03   -0.30633E-05   -0.67587E-07  6808   0.238E-03
   9 F= -.20063230E+03 E0= -.19800054E+03  d E =-.919529E-01
quench:  g(F)=  0.000E+00 g(S)=  0.000E+00 dE (1.order)= 0.000E+00
 bond charge predicted
       N       E                     dE             d eps       ncg     rms          rms(c)
DAV:   1    -0.200664778268E+03   -0.32485E-01   -0.11556E+01 11136   0.694E+00    0.989E-01
DAV:   2    -0.200703591431E+03   -0.38813E-01   -0.33073E-01 11360   0.126E+00    0.157E+00
DAV:   3    -0.200694949703E+03    0.86417E-02   -0.80216E-02 11944   0.118E+00    0.111E+00
DAV:   4    -0.200695123958E+03   -0.17425E-03   -0.46472E-02 11976   0.105E+00    0.112E+00
DAV:   5    -0.200685657077E+03    0.94669E-02   -0.22444E-02 12384   0.759E-01    0.565E-01
DAV:   6    -0.200684981446E+03    0.67563E-03   -0.10220E-02 11688   0.555E-01    0.450E-01
DAV:   7    -0.200683489558E+03    0.14919E-02   -0.51995E-03 11696   0.408E-01    0.274E-01
DAV:   8    -0.200682843384E+03    0.64617E-03   -0.17659E-03 11768   0.231E-01    0.107E-01
DAV:   9    -0.200682827872E+03    0.15513E-04   -0.42594E-04 11464   0.103E-01    0.810E-02
DAV:  10    -0.200682772677E+03    0.55194E-04   -0.14807E-04 11544   0.682E-02    0.279E-02
DAV:  11    -0.200682804290E+03   -0.31613E-04   -0.57563E-05  9088   0.357E-02    0.383E-02
DAV:  12    -0.200682807871E+03   -0.35817E-05   -0.32022E-05  7304   0.302E-02
  10 F= -.20068281E+03 E0= -.19804726E+03  d E =-.505119E-01
quench:  g(F)=  0.000E+00 g(S)=  0.000E+00 dE (1.order)= 0.000E+00
 bond charge predicted
       N       E                     dE             d eps       ncg     rms          rms(c)
DAV:   1    -0.200676580379E+03    0.62239E-02   -0.18124E+01 11136   0.879E+00    0.825E-01
DAV:   2    -0.200723942464E+03   -0.47362E-01   -0.43113E-01 11176   0.121E+00    0.109E+00
DAV:   3    -0.200718999054E+03    0.49434E-02   -0.34624E-02 12664   0.712E-01    0.875E-01
DAV:   4    -0.200717539972E+03    0.14591E-02   -0.22583E-02 11672   0.605E-01    0.691E-01
DAV:   5    -0.200715450967E+03    0.20890E-02   -0.14384E-02 11672   0.562E-01    0.489E-01
DAV:   6    -0.200714163317E+03    0.12877E-02   -0.49343E-03 11352   0.364E-01    0.283E-01
DAV:   7    -0.200714474506E+03   -0.31119E-03   -0.28039E-03 11432   0.292E-01    0.283E-01
DAV:   8    -0.200713829691E+03    0.64481E-03   -0.16206E-03 11624   0.225E-01    0.940E-02
DAV:   9    -0.200713777814E+03    0.51877E-04   -0.39242E-04 11512   0.950E-02    0.487E-02
DAV:  10    -0.200713773379E+03    0.44356E-05   -0.77302E-05 11616   0.430E-02
  11 F= -.20071377E+03 E0= -.19807766E+03  d E =-.309655E-01
quench:  g(F)=  0.000E+00 g(S)=  0.000E+00 dE (1.order)= 0.000E+00
 bond charge predicted
       N       E                     dE             d eps       ncg     rms          rms(c)
DAV:   1    -0.200641705713E+03    0.72072E-01   -0.32988E+01 11136   0.123E+01    0.119E+00
DAV:   2    -0.200724234474E+03   -0.82529E-01   -0.80872E-01 11368   0.165E+00    0.124E+00
DAV:   3    -0.200723610299E+03    0.62417E-03   -0.60069E-02 12968   0.971E-01    0.131E+00
DAV:   4    -0.200716965124E+03    0.66452E-02   -0.42513E-02 11904   0.765E-01    0.872E-01
DAV:   5    -0.200714130965E+03    0.28342E-02   -0.24812E-02 11696   0.726E-01    0.650E-01
DAV:   6    -0.200712123720E+03    0.20072E-02   -0.98960E-03 11464   0.502E-01    0.406E-01
DAV:   7    -0.200712499254E+03   -0.37553E-03   -0.53311E-03 11400   0.402E-01    0.387E-01
DAV:   8    -0.200711230272E+03    0.12690E-02   -0.29613E-03 11512   0.307E-01    0.120E-01
DAV:   9    -0.200711167391E+03    0.62881E-04   -0.71874E-04 11376   0.131E-01    0.732E-02
DAV:  10    -0.200711155723E+03    0.11668E-04   -0.15684E-04 11392   0.636E-02    0.441E-02
DAV:  11    -0.200711152075E+03    0.36480E-05   -0.48683E-05  8384   0.386E-02
  12 F= -.20071115E+03 E0= -.19807238E+03  d E =0.262130E-02
quench:  g(F)=  0.000E+00 g(S)=  0.000E+00 dE (1.order)= 0.000E+00
 bond charge predicted
       N       E                     dE             d eps       ncg     rms          rms(c)
DAV:   1    -0.200590175823E+03    0.12098E+00   -0.53857E+01 11136   0.159E+01    0.147E+00
DAV:   2    -0.200730621898E+03   -0.14045E+00   -0.13932E+00 11160   0.210E+00    0.151E+00
DAV:   3    -0.200757708883E+03   -0.27087E-01   -0.14072E-01 12168   0.186E+00    0.224E+00
DAV:   4    -0.200727227840E+03    0.30481E-01   -0.13506E-01 12072   0.160E+00    0.144E+00
DAV:   5    -0.200712342440E+03    0.14885E-01   -0.32974E-02 12416   0.614E-01    0.549E-01
DAV:   6    -0.200715457274E+03   -0.31148E-02   -0.16968E-02 11600   0.656E-01    0.736E-01
DAV:   7    -0.200714176363E+03    0.12809E-02   -0.12158E-02 11784   0.582E-01    0.525E-01
DAV:   8    -0.200711661746E+03    0.25146E-02   -0.54402E-03 11440   0.425E-01    0.174E-01
DAV:   9    -0.200711597283E+03    0.64462E-04   -0.14526E-03 11512   0.183E-01    0.124E-01
DAV:  10    -0.200711498537E+03    0.98747E-04   -0.38010E-04 11544   0.104E-01    0.621E-02
DAV:  11    -0.200711482059E+03    0.16477E-04   -0.12843E-04 11648   0.600E-02    0.451E-02
DAV:  12    -0.200711479816E+03    0.22436E-05   -0.67684E-05 11096   0.379E-02
  13 F= -.20071148E+03 E0= -.19807063E+03  d E =-.327741E-03
quench:  g(F)=  0.000E+00 g(S)=  0.000E+00 dE (1.order)= 0.000E+00
 bond charge predicted
       N       E                     dE             d eps       ncg     rms          rms(c)
DAV:   1    -0.200642565621E+03    0.68916E-01   -0.28077E+01 11136   0.919E+00    0.185E+00
DAV:   2    -0.200725674792E+03   -0.83109E-01   -0.77459E-01 11464   0.196E+00    0.259E+00
DAV:   3    -0.200721378096E+03    0.42967E-02   -0.28268E-01 11904   0.223E+00    0.254E+00
DAV:   4    -0.200699256552E+03    0.22122E-01   -0.22644E-01 12120   0.212E+00    0.198E+00
DAV:   5    -0.200674110727E+03    0.25146E-01   -0.73877E-02 12144   0.142E+00    0.122E+00
DAV:   6    -0.200662783533E+03    0.11327E-01   -0.32933E-02 11648   0.100E+00    0.607E-01
DAV:   7    -0.200661194958E+03    0.15886E-02   -0.13392E-02 11584   0.632E-01    0.471E-01
DAV:   8    -0.200659198963E+03    0.19960E-02   -0.49744E-03 11640   0.404E-01    0.170E-01
DAV:   9    -0.200659097551E+03    0.10141E-03   -0.12169E-03 11472   0.178E-01    0.104E-01
DAV:  10    -0.200659178802E+03   -0.81251E-04   -0.32147E-04 11456   0.896E-02    0.574E-02
DAV:  11    -0.200659311122E+03   -0.13232E-03   -0.15649E-04 11520   0.666E-02    0.499E-02
DAV:  12    -0.200659534169E+03   -0.22305E-03   -0.91479E-05 10944   0.442E-02    0.293E-02
DAV:  13    -0.200659648748E+03   -0.11458E-03   -0.36021E-05  8432   0.289E-02    0.169E-02
DAV:  14    -0.200659805605E+03   -0.15686E-03   -0.22856E-05  7728   0.170E-02    0.122E-02
DAV:  15    -0.200659874405E+03   -0.68801E-04   -0.85337E-06  7456   0.127E-02    0.755E-03
DAV:  16    -0.200659973588E+03   -0.99183E-04   -0.11580E-05  7344   0.966E-03    0.852E-03
DAV:  17    -0.200660052278E+03   -0.78690E-04   -0.10360E-05  7576   0.854E-03    0.420E-03
DAV:  18    -0.200660086153E+03   -0.33875E-04   -0.43745E-06  7000   0.536E-03    0.450E-03
DAV:  19    -0.200660100985E+03   -0.14832E-04   -0.20415E-06  7040   0.427E-03    0.244E-03
DAV:  20    -0.200660111509E+03   -0.10524E-04   -0.15174E-06  6904   0.267E-03    0.228E-03
DAV:  21    -0.200660114799E+03   -0.32897E-05   -0.64316E-07  6792   0.235E-03
  14 F= -.20066011E+03 E0= -.19802249E+03  d E =0.513650E-01
quench:  g(F)=  0.000E+00 g(S)=  0.000E+00 dE (1.order)= 0.000E+00
 bond charge predicted
       N       E                     dE             d eps       ncg     rms          rms(c)
DAV:   1    -0.200746209476E+03   -0.86098E-01   -0.16355E+01 11136   0.820E+00    0.117E+00
DAV:   2    -0.200795526492E+03   -0.49317E-01   -0.47414E-01 11296   0.137E+00    0.150E+00
DAV:   3    -0.200797369782E+03   -0.18433E-02   -0.10249E-01 12160   0.138E+00    0.148E+00
DAV:   4    -0.200791363485E+03    0.60063E-02   -0.69611E-02 11968   0.127E+00    0.125E+00
DAV:   5    -0.200778962572E+03    0.12401E-01   -0.29313E-02 12336   0.875E-01    0.615E-01
DAV:   6    -0.200778209067E+03    0.75350E-03   -0.12694E-02 11736   0.613E-01    0.519E-01
DAV:   7    -0.200776064956E+03    0.21441E-02   -0.64006E-03 11832   0.452E-01    0.293E-01
DAV:   8    -0.200775274722E+03    0.79023E-03   -0.17574E-03 11928   0.231E-01    0.105E-01
DAV:   9    -0.200775264979E+03    0.97424E-05   -0.46622E-04 11472   0.104E-01    0.819E-02
DAV:  10    -0.200775217822E+03    0.47157E-04   -0.16933E-04 11608   0.726E-02    0.355E-02
DAV:  11    -0.200775250981E+03   -0.33159E-04   -0.80090E-05 11456   0.423E-02    0.413E-02
DAV:  12    -0.200775252712E+03   -0.17312E-05   -0.42773E-05  7792   0.351E-02
  15 F= -.20077525E+03 E0= -.19813598E+03  d E =-.115138E+00
quench:  g(F)=  0.000E+00 g(S)=  0.000E+00 dE (1.order)= 0.000E+00
 bond charge predicted
       N       E                     dE             d eps       ncg     rms          rms(c)
DAV:   1    -0.200791938574E+03   -0.16688E-01   -0.21173E+01 11136   0.102E+01    0.994E-01
DAV:   2    -0.200844596999E+03   -0.52658E-01   -0.53483E-01 11248   0.135E+00    0.969E-01
DAV:   3    -0.200845942658E+03   -0.13457E-02   -0.43411E-02 12904   0.820E-01    0.107E+00
DAV:   4    -0.200844729677E+03    0.12130E-02   -0.42488E-02 11864   0.845E-01    0.971E-01
DAV:   5    -0.200838063248E+03    0.66664E-02   -0.20045E-02 11840   0.678E-01    0.460E-01
DAV:   6    -0.200837028001E+03    0.10352E-02   -0.50413E-03 11408   0.380E-01    0.281E-01
DAV:   7    -0.200837336992E+03   -0.30899E-03   -0.30521E-03 11528   0.306E-01    0.290E-01
DAV:   8    -0.200836645820E+03    0.69117E-03   -0.17212E-03 11704   0.234E-01    0.930E-02
DAV:   9    -0.200836593490E+03    0.52331E-04   -0.42436E-04 11528   0.979E-02    0.497E-02
DAV:  10    -0.200836588495E+03    0.49946E-05   -0.78367E-05 11624   0.438E-02
  16 F= -.20083659E+03 E0= -.19819987E+03  d E =-.613358E-01
quench:  g(F)=  0.000E+00 g(S)=  0.000E+00 dE (1.order)= 0.000E+00
 bond charge predicted
       N       E                     dE             d eps       ncg     rms          rms(c)
DAV:   1    -0.200878120819E+03   -0.41527E-01   -0.42724E+01 11136   0.145E+01    0.139E+00
DAV:   2    -0.200979670571E+03   -0.10155E+00   -0.10734E+00 11136   0.185E+00    0.109E+00
DAV:   3    -0.200996872206E+03   -0.17202E-01   -0.80374E-02 12160   0.142E+00    0.169E+00
DAV:   4    -0.200983375471E+03    0.13497E-01   -0.92894E-02 11792   0.137E+00    0.120E+00
DAV:   5    -0.200971622492E+03    0.11753E-01   -0.27624E-02 12512   0.656E-01    0.454E-01
DAV:   6    -0.200972448753E+03   -0.82626E-03   -0.10420E-02 11488   0.489E-01    0.469E-01
DAV:   7    -0.200972740437E+03   -0.29168E-03   -0.64298E-03 11616   0.433E-01    0.404E-01
DAV:   8    -0.200971226811E+03    0.15136E-02   -0.29247E-03 11440   0.313E-01    0.113E-01
DAV:   9    -0.200971180007E+03    0.46804E-04   -0.59236E-04 11576   0.111E-01    0.694E-02
DAV:  10    -0.200971168814E+03    0.11193E-04   -0.13074E-04 11544   0.567E-02    0.435E-02
DAV:  11    -0.200971160726E+03    0.80881E-05   -0.54437E-05  9120   0.401E-02
  17 F= -.20097116E+03 E0= -.19834060E+03  d E =-.134572E+00
quench:  g(F)=  0.000E+00 g(S)=  0.000E+00 dE (1.order)= 0.000E+00
 bond charge predicted
       N       E                     dE             d eps       ncg     rms          rms(c)
DAV:   1    -0.201053017145E+03   -0.81848E-01   -0.47337E+01 11136   0.144E+01    0.187E+00
DAV:   2    -0.201160636653E+03   -0.10762E+00   -0.13342E+00 11384   0.231E+00    0.168E+00
DAV:   3    -0.201153689557E+03    0.69471E-02   -0.11422E-01 11840   0.164E+00    0.151E+00
DAV:   4    -0.201174812650E+03   -0.21123E-01   -0.15675E-01 11880   0.175E+00    0.217E+00
DAV:   5    -0.201140340437E+03    0.34472E-01   -0.90137E-02 11784   0.144E+00    0.988E-01
DAV:   6    -0.201136706913E+03    0.36335E-02   -0.29858E-02 11712   0.950E-01    0.760E-01
DAV:   7    -0.201134531701E+03    0.21752E-02   -0.16598E-02 11688   0.744E-01    0.580E-01
DAV:   8    -0.201131269808E+03    0.32619E-02   -0.70691E-03 11744   0.486E-01    0.178E-01
DAV:   9    -0.201131317965E+03   -0.48157E-04   -0.17406E-03 11464   0.204E-01    0.140E-01
DAV:  10    -0.201131277440E+03    0.40525E-04   -0.47908E-04 11432   0.118E-01    0.547E-02
DAV:  11    -0.201131399497E+03   -0.12206E-03   -0.11920E-04 11520   0.549E-02    0.449E-02
DAV:  12    -0.201131707525E+03   -0.30803E-03   -0.11572E-04 11344   0.447E-02    0.329E-02
DAV:  13    -0.201131835072E+03   -0.12755E-03   -0.44885E-05  9448   0.322E-02    0.183E-02
DAV:  14    -0.201131938276E+03   -0.10320E-03   -0.17671E-05  7288   0.170E-02    0.118E-02
DAV:  15    -0.201132004472E+03   -0.66196E-04   -0.79342E-06  7336   0.119E-02    0.730E-03
DAV:  16    -0.201132108550E+03   -0.10408E-03   -0.12446E-05  7408   0.899E-03    0.822E-03
DAV:  17    -0.201132159295E+03   -0.50745E-04   -0.63623E-06  7328   0.834E-03    0.454E-03
DAV:  18    -0.201132202786E+03   -0.43491E-04   -0.62806E-06  7216   0.566E-03    0.451E-03
DAV:  19    -0.201132214400E+03   -0.11615E-04   -0.18576E-06  7048   0.432E-03    0.211E-03
DAV:  20    -0.201132222653E+03   -0.82528E-05   -0.12742E-06  6832   0.255E-03
  18 F= -.20113222E+03 E0= -.19851276E+03  d E =-.161062E+00
quench:  g(F)=  0.000E+00 g(S)=  0.000E+00 dE (1.order)= 0.000E+00
 bond charge predicted
       N       E                     dE             d eps       ncg     rms          rms(c)
DAV:   1    -0.201284040592E+03   -0.15183E+00   -0.33159E+01 11136   0.110E+01    0.158E+00
DAV:   2    -0.201374485499E+03   -0.90445E-01   -0.95624E-01 11368   0.168E+00    0.157E+00
DAV:   3    -0.201404907332E+03   -0.30422E-01   -0.18755E-01 12256   0.193E+00    0.236E+00
DAV:   4    -0.201371351728E+03    0.33556E-01   -0.14480E-01 12024   0.176E+00    0.146E+00
DAV:   5    -0.201353869905E+03    0.17482E-01   -0.44858E-02 12136   0.113E+00    0.714E-01
DAV:   6    -0.201354821673E+03   -0.95177E-03   -0.23260E-02 11848   0.818E-01    0.741E-01
DAV:   7    -0.201349607576E+03    0.52141E-02   -0.10834E-02 11904   0.592E-01    0.292E-01
DAV:   8    -0.201348931155E+03    0.67642E-03   -0.24634E-03 11672   0.265E-01    0.147E-01
DAV:   9    -0.201348877273E+03    0.53881E-04   -0.83207E-04 11504   0.142E-01    0.108E-01
DAV:  10    -0.201348810392E+03    0.66882E-04   -0.26913E-04 11592   0.880E-02    0.531E-02
DAV:  11    -0.201348835460E+03   -0.25068E-04   -0.14875E-04 11624   0.602E-02    0.459E-02
DAV:  12    -0.201348845827E+03   -0.10368E-04   -0.61268E-05 10216   0.414E-02    0.202E-02
DAV:  13    -0.201348866991E+03   -0.21163E-04   -0.23590E-05  7488   0.220E-02    0.164E-02
DAV:  14    -0.201348892782E+03   -0.25791E-04   -0.92710E-06  6768   0.151E-02    0.909E-03
DAV:  15    -0.201348911805E+03   -0.19023E-04   -0.55081E-06  6768   0.114E-02    0.882E-03
DAV:  16    -0.201348935198E+03   -0.23393E-04   -0.37472E-06  6864   0.810E-03    0.589E-03
DAV:  17    -0.201348944611E+03   -0.94129E-05   -0.16749E-06  6760   0.586E-03
  19 F= -.20134894E+03 E0= -.19873615E+03  d E =-.216722E+00
quench:  g(F)=  0.000E+00 g(S)=  0.000E+00 dE (1.order)= 0.000E+00
 bond charge predicted
       N       E                     dE             d eps       ncg     rms          rms(c)
DAV:   1    -0.201513612261E+03   -0.16468E+00   -0.96840E+00 11136   0.561E+00    0.105E+00
DAV:   2    -0.201532231213E+03   -0.18619E-01   -0.28236E-01 11424   0.107E+00    0.837E-01
DAV:   3    -0.201531737142E+03    0.49407E-03   -0.29095E-02 11936   0.879E-01    0.815E-01
DAV:   4    -0.201542577092E+03   -0.10840E-01   -0.54588E-02 12152   0.108E+00    0.140E+00
DAV:   5    -0.201526553794E+03    0.16023E-01   -0.37078E-02 11928   0.918E-01    0.495E-01
DAV:   6    -0.201525237599E+03    0.13162E-02   -0.94260E-03 11864   0.531E-01    0.389E-01
DAV:   7    -0.201524024380E+03    0.12132E-02   -0.38877E-03 11768   0.354E-01    0.212E-01
DAV:   8    -0.201523727476E+03    0.29690E-03   -0.11987E-03 11776   0.190E-01    0.106E-01
DAV:   9    -0.201523766237E+03   -0.38761E-04   -0.40973E-04 11480   0.101E-01    0.728E-02
DAV:  10    -0.201523792384E+03   -0.26147E-04   -0.12249E-04 11528   0.610E-02    0.328E-02
DAV:  11    -0.201523888503E+03   -0.96119E-04   -0.47465E-05  9080   0.337E-02    0.298E-02
DAV:  12    -0.201524002834E+03   -0.11433E-03   -0.38683E-05  8528   0.283E-02    0.161E-02
DAV:  13    -0.201524048332E+03   -0.45498E-04   -0.12017E-05  7432   0.166E-02    0.907E-03
DAV:  14    -0.201524096478E+03   -0.48146E-04   -0.71925E-06  7120   0.102E-02    0.790E-03
DAV:  15    -0.201524124999E+03   -0.28521E-04   -0.34050E-06  7032   0.780E-03    0.445E-03
DAV:  16    -0.201524175609E+03   -0.50609E-04   -0.69605E-06  7240   0.572E-03    0.489E-03
DAV:  17    -0.201524185489E+03   -0.98808E-05   -0.17930E-06  7032   0.462E-03
  20 F= -.20152419E+03 E0= -.19891720E+03  d E =-.175241E+00
quench:  g(F)=  0.000E+00 g(S)=  0.000E+00 dE (1.order)= 0.000E+00
 bond charge predicted
       N       E                     dE             d eps       ncg     rms          rms(c)
DAV:   1    -0.201751781537E+03   -0.22761E+00   -0.21313E+01 11136   0.931E+00    0.107E+00
DAV:   2    -0.201802594618E+03   -0.50813E-01   -0.51077E-01 11592   0.134E+00    0.116E+00
DAV:   3    -0.201818116545E+03   -0.15522E-01   -0.11133E-01 12016   0.149E+00    0.174E+00
DAV:   4    -0.201798056771E+03    0.20060E-01   -0.66704E-02 11864   0.122E+00    0.912E-01
DAV:   5    -0.201792144212E+03    0.59126E-02   -0.15238E-02 11872   0.692E-01    0.443E-01
DAV:   6    -0.201793110539E+03   -0.96633E-03   -0.92178E-03 11840   0.516E-01    0.460E-01
DAV:   7    -0.201791735654E+03    0.13749E-02   -0.43996E-03 11744   0.374E-01    0.209E-01
DAV:   8    -0.201791415728E+03    0.31993E-03   -0.14135E-03 11576   0.201E-01    0.105E-01
DAV:   9    -0.201791378811E+03    0.36917E-04   -0.40984E-04 11648   0.102E-01    0.684E-02
DAV:  10    -0.201791350143E+03    0.28668E-04   -0.15003E-04 11520   0.623E-02    0.406E-02
DAV:  11    -0.201791339926E+03    0.10217E-04   -0.38520E-05  7784   0.338E-02    0.194E-02
DAV:  12    -0.201791349784E+03   -0.98576E-05   -0.26981E-05  8016   0.226E-02
  21 F= -.20179135E+03 E0= -.19919264E+03  d E =-.267164E+00
quench:  g(F)=  0.000E+00 g(S)=  0.000E+00 dE (1.order)= 0.000E+00
 bond charge predicted
       N       E                     dE             d eps       ncg     rms          rms(c)
DAV:   1    -0.202121420251E+03   -0.33008E+00   -0.36079E+01 11136   0.119E+01    0.154E+00
DAV:   2    -0.202223658966E+03   -0.10224E+00   -0.10991E+00 11576   0.198E+00    0.159E+00
DAV:   3    -0.202261121414E+03   -0.37462E-01   -0.21632E-01 11936   0.207E+00    0.260E+00
DAV:   4    -0.202212195110E+03    0.48926E-01   -0.12392E-01 11920   0.164E+00    0.116E+00
DAV:   5    -0.202205971104E+03    0.62240E-02   -0.33835E-02 11920   0.101E+00    0.784E-01
DAV:   6    -0.202207209682E+03   -0.12386E-02   -0.25811E-02 11656   0.898E-01    0.793E-01
DAV:   7    -0.202201587619E+03    0.56221E-02   -0.13317E-02 12152   0.671E-01    0.306E-01
DAV:   8    -0.202201132712E+03    0.45491E-03   -0.43701E-03 11616   0.351E-01    0.201E-01
DAV:   9    -0.202200960951E+03    0.17176E-03   -0.13142E-03 11640   0.188E-01    0.106E-01
DAV:  10    -0.202200939614E+03    0.21337E-04   -0.33084E-04 11608   0.944E-02    0.475E-02
DAV:  11    -0.202201027179E+03   -0.87565E-04   -0.83952E-05 11384   0.453E-02    0.366E-02
DAV:  12    -0.202201162948E+03   -0.13577E-03   -0.70739E-05 11400   0.393E-02    0.278E-02
DAV:  13    -0.202201259213E+03   -0.96265E-04   -0.29139E-05  7848   0.259E-02    0.149E-02
DAV:  14    -0.202201306607E+03   -0.47394E-04   -0.13876E-05  7256   0.160E-02    0.117E-02
DAV:  15    -0.202201344839E+03   -0.38232E-04   -0.58662E-06  7000   0.104E-02    0.631E-03
DAV:  16    -0.202201376731E+03   -0.31892E-04   -0.38760E-06  6936   0.744E-03    0.569E-03
DAV:  17    -0.202201412390E+03   -0.35659E-04   -0.42327E-06  7152   0.554E-03    0.374E-03
DAV:  18    -0.202201423874E+03   -0.11485E-04   -0.16046E-06  6904   0.425E-03    0.342E-03
DAV:  19    -0.202201435041E+03   -0.11166E-04   -0.16222E-06  6872   0.293E-03    0.130E-03
DAV:  20    -0.202201437939E+03   -0.28985E-05   -0.57096E-07  6776   0.199E-03
  22 F= -.20220144E+03 E0= -.19961216E+03  d E =-.410088E+00
quench:  g(F)=  0.000E+00 g(S)=  0.000E+00 dE (1.order)= 0.000E+00
 bond charge predicted
       N       E                     dE             d eps       ncg     rms          rms(c)
DAV:   1    -0.202473161795E+03   -0.27173E+00   -0.80060E+01 11384   0.173E+01    0.231E+00
DAV:   2    -0.202668107267E+03   -0.19495E+00   -0.19782E+00 12032   0.262E+00    0.230E+00
DAV:   3    -0.202760107018E+03   -0.92000E-01   -0.54258E-01 11976   0.326E+00    0.389E+00
DAV:   4    -0.202652437688E+03    0.10767E+00   -0.30279E-01 11952   0.262E+00    0.194E+00
DAV:   5    -0.202622014791E+03    0.30423E-01   -0.69816E-02 11856   0.149E+00    0.916E-01
DAV:   6    -0.202623167779E+03   -0.11530E-02   -0.38153E-02 11856   0.103E+00    0.846E-01
DAV:   7    -0.202618551974E+03    0.46158E-02   -0.18328E-02 11520   0.734E-01    0.422E-01
DAV:   8    -0.202617111224E+03    0.14407E-02   -0.55291E-03 11656   0.402E-01    0.204E-01
DAV:   9    -0.202617031248E+03    0.79976E-04   -0.15947E-03 11776   0.196E-01    0.152E-01
DAV:  10    -0.202616870193E+03    0.16106E-03   -0.72876E-04 11520   0.143E-01    0.738E-02
DAV:  11    -0.202616858848E+03    0.11345E-04   -0.18117E-04 11784   0.667E-02    0.429E-02
DAV:  12    -0.202616877152E+03   -0.18304E-04   -0.10856E-04 11608   0.493E-02    0.335E-02
DAV:  13    -0.202616894553E+03   -0.17402E-04   -0.29441E-05  7168   0.283E-02    0.169E-02
DAV:  14    -0.202616910151E+03   -0.15598E-04   -0.13328E-05  7136   0.179E-02    0.134E-02
DAV:  15    -0.202616930664E+03   -0.20512E-04   -0.69859E-06  6680   0.130E-02    0.737E-03
DAV:  16    -0.202616947774E+03   -0.17110E-04   -0.35483E-06  6760   0.909E-03    0.678E-03
DAV:  17    -0.202616964954E+03   -0.17181E-04   -0.25254E-06  6656   0.688E-03    0.593E-03
DAV:  18    -0.202616977760E+03   -0.12806E-04   -0.17874E-06  6832   0.565E-03    0.384E-03
DAV:  19    -0.202616990815E+03   -0.13055E-04   -0.15808E-06  6848   0.370E-03    0.285E-03
DAV:  20    -0.202616995122E+03   -0.43066E-05   -0.61629E-07  6784   0.299E-03
  23 F= -.20261700E+03 E0= -.20003583E+03  d E =-.415557E+00
quench:  g(F)=  0.000E+00 g(S)=  0.000E+00 dE (1.order)= 0.000E+00
 bond charge predicted
       N       E                     dE             d eps       ncg     rms          rms(c)
DAV:   1    -0.202664853456E+03   -0.47863E-01   -0.51202E+01 11136   0.128E+01    0.194E+00
DAV:   2    -0.202813696852E+03   -0.14884E+00   -0.17368E+00 11584   0.239E+00    0.167E+00
DAV:   3    -0.202859403854E+03   -0.45707E-01   -0.20379E-01 13336   0.204E+00    0.287E+00
DAV:   4    -0.202800922984E+03    0.58481E-01   -0.16763E-01 11968   0.188E+00    0.129E+00
DAV:   5    -0.202807071939E+03   -0.61490E-02   -0.85585E-02 11768   0.155E+00    0.155E+00
DAV:   6    -0.202785726277E+03    0.21346E-01   -0.47819E-02 11720   0.126E+00    0.695E-01
DAV:   7    -0.202782586573E+03    0.31397E-02   -0.18116E-02 11904   0.756E-01    0.431E-01
DAV:   8    -0.202781612144E+03    0.97443E-03   -0.65289E-03 11464   0.432E-01    0.246E-01
DAV:   9    -0.202781197335E+03    0.41481E-03   -0.15739E-03 11480   0.220E-01    0.103E-01
DAV:  10    -0.202781313794E+03   -0.11646E-03   -0.45111E-04 11480   0.101E-01    0.706E-02
DAV:  11    -0.202781741791E+03   -0.42800E-03   -0.25949E-04 11344   0.728E-02    0.606E-02
DAV:  12    -0.202781941645E+03   -0.19985E-03   -0.13208E-04 11688   0.597E-02    0.310E-02
DAV:  13    -0.202782136794E+03   -0.19515E-03   -0.45816E-05  9848   0.278E-02    0.204E-02
DAV:  14    -0.202782227007E+03   -0.90213E-04   -0.23410E-05  8056   0.195E-02    0.120E-02
DAV:  15    -0.202782363454E+03   -0.13645E-03   -0.18109E-05  7528   0.138E-02    0.124E-02
DAV:  16    -0.202782475016E+03   -0.11156E-03   -0.15157E-05  7576   0.128E-02    0.833E-03
DAV:  17    -0.202782544313E+03   -0.69297E-04   -0.79624E-06  7184   0.712E-03    0.555E-03
DAV:  18    -0.202782575620E+03   -0.31306E-04   -0.35147E-06  7064   0.581E-03    0.514E-03
DAV:  19    -0.202782618151E+03   -0.42531E-04   -0.59203E-06  7208   0.493E-03    0.271E-03
DAV:  20    -0.202782627604E+03   -0.94533E-05   -0.16571E-06  7016   0.351E-03
  24 F= -.20278263E+03 E0= -.20020294E+03  d E =-.165632E+00
quench:  g(F)=  0.000E+00 g(S)=  0.000E+00 dE (1.order)= 0.000E+00
 bond charge predicted
       N       E                     dE             d eps       ncg     rms          rms(c)
DAV:   1    -0.202976920846E+03   -0.19430E+00   -0.15565E+01 11136   0.731E+00    0.125E+00
DAV:   2    -0.203035013618E+03   -0.58093E-01   -0.52501E-01 11456   0.163E+00    0.171E+00
DAV:   3    -0.203033002577E+03    0.20110E-02   -0.12513E-01 11960   0.160E+00    0.156E+00
DAV:   4    -0.203020492068E+03    0.12511E-01   -0.71903E-02 11936   0.130E+00    0.104E+00
DAV:   5    -0.203014660275E+03    0.58318E-02   -0.32359E-02 11472   0.983E-01    0.786E-01
DAV:   6    -0.203011091886E+03    0.35684E-02   -0.15520E-02 11784   0.711E-01    0.502E-01
DAV:   7    -0.203009308663E+03    0.17832E-02   -0.66521E-03 11632   0.456E-01    0.292E-01
DAV:   8    -0.203008619119E+03    0.68954E-03   -0.26382E-03 11704   0.282E-01    0.145E-01
DAV:   9    -0.203008506918E+03    0.11220E-03   -0.73284E-04 11704   0.140E-01    0.938E-02
DAV:  10    -0.203008452648E+03    0.54270E-04   -0.26930E-04 11560   0.843E-02    0.459E-02
DAV:  11    -0.203008467321E+03   -0.14673E-04   -0.93888E-05 11472   0.495E-02    0.384E-02
DAV:  12    -0.203008470796E+03   -0.34755E-05   -0.38099E-05  7760   0.346E-02
  25 F= -.20300847E+03 E0= -.20042711E+03  d E =-.225843E+00
quench:  g(F)=  0.000E+00 g(S)=  0.000E+00 dE (1.order)= 0.000E+00
 bond charge predicted
       N       E                     dE             d eps       ncg     rms          rms(c)
DAV:   1    -0.203079007570E+03   -0.70540E-01   -0.21619E+01 11136   0.860E+00    0.136E+00
DAV:   2    -0.203159587602E+03   -0.80580E-01   -0.63485E-01 11536   0.206E+00    0.229E+00
DAV:   3    -0.203143124211E+03    0.16463E-01   -0.20967E-01 11864   0.202E+00    0.174E+00
DAV:   4    -0.203129591649E+03    0.13533E-01   -0.87285E-02 11672   0.147E+00    0.118E+00
DAV:   5    -0.203121166300E+03    0.84253E-02   -0.33989E-02 11440   0.105E+00    0.792E-01
DAV:   6    -0.203117693051E+03    0.34732E-02   -0.15541E-02 11656   0.716E-01    0.507E-01
DAV:   7    -0.203116821708E+03    0.87134E-03   -0.70835E-03 11488   0.467E-01    0.363E-01
DAV:   8    -0.203115601504E+03    0.12202E-02   -0.33756E-03 11496   0.322E-01    0.140E-01
DAV:   9    -0.203115551159E+03    0.50345E-04   -0.85933E-04 11584   0.148E-01    0.109E-01
DAV:  10    -0.203115460993E+03    0.90166E-04   -0.27026E-04 11472   0.881E-02    0.459E-02
DAV:  11    -0.203115463124E+03   -0.21311E-05   -0.77095E-05 11808   0.444E-02
  26 F= -.20311546E+03 E0= -.20053066E+03  d E =-.106992E+00
quench:  g(F)=  0.000E+00 g(S)=  0.000E+00 dE (1.order)= 0.000E+00
 bond charge predicted
       N       E                     dE             d eps       ncg     rms          rms(c)
DAV:   1    -0.203142122628E+03   -0.26662E-01   -0.30490E+00 11136   0.337E+00    0.424E-01
DAV:   2    -0.203147888744E+03   -0.57661E-02   -0.67324E-02 11616   0.521E-01    0.247E-01
DAV:   3    -0.203148207370E+03   -0.31863E-03   -0.46236E-03 11744   0.299E-01    0.281E-01
DAV:   4    -0.203147731869E+03    0.47550E-03   -0.24158E-03 11496   0.275E-01    0.178E-01
DAV:   5    -0.203148161319E+03   -0.42945E-03   -0.18392E-03 11792   0.225E-01    0.266E-01
DAV:   6    -0.203147948286E+03    0.21303E-03   -0.21645E-03 11832   0.222E-01    0.219E-01
DAV:   7    -0.203147572858E+03    0.37543E-03   -0.96236E-04 11712   0.156E-01    0.797E-02
DAV:   8    -0.203147540305E+03    0.32553E-04   -0.24469E-04 11656   0.817E-02    0.518E-02
DAV:   9    -0.203147519252E+03    0.21053E-04   -0.65007E-05  9440   0.440E-02    0.218E-02
DAV:  10    -0.203147515882E+03    0.33703E-05   -0.15445E-05  6448   0.212E-02
  27 F= -.20314752E+03 E0= -.20056110E+03  d E =-.320528E-01
quench:  g(F)=  0.000E+00 g(S)=  0.000E+00 dE (1.order)= 0.000E+00
 bond charge predicted
       N       E                     dE             d eps       ncg     rms          rms(c)
DAV:   1    -0.203171942326E+03   -0.24423E-01   -0.48005E+00 11136   0.420E+00    0.432E-01
DAV:   2    -0.203181524548E+03   -0.95822E-02   -0.97724E-02 11568   0.700E-01    0.489E-01
DAV:   3    -0.203183581107E+03   -0.20566E-02   -0.14657E-02 11888   0.566E-01    0.634E-01
DAV:   4    -0.203181089803E+03    0.24913E-02   -0.99904E-03 11728   0.479E-01    0.346E-01
DAV:   5    -0.203180398202E+03    0.69160E-03   -0.29060E-03 11432   0.305E-01    0.238E-01
DAV:   6    -0.203180390245E+03    0.79566E-05   -0.15934E-03 11424   0.227E-01    0.209E-01
DAV:   7    -0.203180142159E+03    0.24809E-03   -0.10867E-03 11360   0.187E-01    0.125E-01
DAV:   8    -0.203180010836E+03    0.13132E-03   -0.47077E-04 11400   0.117E-01    0.520E-02
DAV:   9    -0.203179990974E+03    0.19862E-04   -0.97204E-05 11368   0.492E-02    0.294E-02
DAV:  10    -0.203179984640E+03    0.63341E-05   -0.27438E-05  7528   0.248E-02
  28 F= -.20317998E+03 E0= -.20059154E+03  d E =-.324688E-01
quench:  g(F)=  0.000E+00 g(S)=  0.000E+00 dE (1.order)= 0.000E+00
 bond charge predicted
       N       E                     dE             d eps       ncg     rms          rms(c)
DAV:   1    -0.203185574415E+03   -0.55834E-02   -0.56241E+00 11136   0.452E+00    0.559E-01
DAV:   2    -0.203199258697E+03   -0.13684E-01   -0.15139E-01 11472   0.778E-01    0.500E-01
DAV:   3    -0.203203882855E+03   -0.46242E-02   -0.18937E-02 12312   0.662E-01    0.851E-01
DAV:   4    -0.203198366340E+03    0.55165E-02   -0.16623E-02 11992   0.611E-01    0.392E-01
DAV:   5    -0.203197655110E+03    0.71123E-03   -0.53859E-03 11464   0.379E-01    0.302E-01
DAV:   6    -0.203197036683E+03    0.61843E-03   -0.29789E-03 11656   0.288E-01    0.198E-01
DAV:   7    -0.203196720143E+03    0.31654E-03   -0.13839E-03 11664   0.200E-01    0.102E-01
DAV:   8    -0.203196700024E+03    0.20119E-04   -0.42938E-04 11720   0.111E-01    0.799E-02
DAV:   9    -0.203196647286E+03    0.52739E-04   -0.13877E-04 11224   0.699E-02    0.407E-02
DAV:  10    -0.203196638166E+03    0.91199E-05   -0.34697E-05  7152   0.317E-02
  29 F= -.20319664E+03 E0= -.20060702E+03  d E =-.166535E-01
quench:  g(F)=  0.000E+00 g(S)=  0.000E+00 dE (1.order)= 0.000E+00
 bond charge predicted
       N       E                     dE             d eps       ncg     rms          rms(c)
DAV:   1    -0.203208137481E+03   -0.11490E-01   -0.16217E+00 11136   0.215E+00    0.383E-01
DAV:   2    -0.203213445071E+03   -0.53076E-02   -0.64155E-02 11328   0.443E-01    0.311E-01
DAV:   3    -0.203213763607E+03   -0.31854E-03   -0.51384E-03 12976   0.325E-01    0.406E-01
DAV:   4    -0.203213632669E+03    0.13094E-03   -0.67540E-03 12080   0.383E-01    0.392E-01
DAV:   5    -0.203212710920E+03    0.92175E-03   -0.49380E-03 11720   0.346E-01    0.261E-01
DAV:   6    -0.203212122678E+03    0.58824E-03   -0.15906E-03 11864   0.225E-01    0.140E-01
DAV:   7    -0.203211993744E+03    0.12893E-03   -0.63684E-04 11736   0.142E-01    0.825E-02
DAV:   8    -0.203211960846E+03    0.32899E-04   -0.23049E-04 11472   0.842E-02    0.572E-02
DAV:   9    -0.203211931236E+03    0.29610E-04   -0.65009E-05  9232   0.466E-02    0.199E-02
DAV:  10    -0.203211932646E+03   -0.14101E-05   -0.17114E-05  6592   0.204E-02
  30 F= -.20321193E+03 E0= -.20062171E+03  d E =-.152945E-01
quench:  g(F)=  0.000E+00 g(S)=  0.000E+00 dE (1.order)= 0.000E+00
 bond charge predicted
       N       E                     dE             d eps       ncg     rms          rms(c)
DAV:   1    -0.203218279236E+03   -0.63480E-02   -0.53857E-01 11136   0.138E+00    0.180E-01
DAV:   2    -0.203219776908E+03   -0.14977E-02   -0.16576E-02 11368   0.247E-01    0.155E-01
DAV:   3    -0.203219916110E+03   -0.13920E-03   -0.13942E-03 12304   0.180E-01    0.205E-01
DAV:   4    -0.203219746692E+03    0.16942E-03   -0.14153E-03 12000   0.176E-01    0.163E-01
DAV:   5    -0.203219588158E+03    0.15853E-03   -0.72897E-04 11632   0.134E-01    0.101E-01
DAV:   6    -0.203219533919E+03    0.54239E-04   -0.35941E-04 11624   0.103E-01    0.832E-02
DAV:   7    -0.203219482661E+03    0.51258E-04   -0.17154E-04 11752   0.770E-02    0.446E-02
DAV:   8    -0.203219469866E+03    0.12795E-04   -0.70100E-05 10192   0.469E-02    0.291E-02
DAV:   9    -0.203219463005E+03    0.68613E-05   -0.19966E-05  6832   0.246E-02
  31 F= -.20321946E+03 E0= -.20062908E+03  d E =-.753036E-02
quench:  g(F)=  0.000E+00 g(S)=  0.000E+00 dE (1.order)= 0.000E+00
 bond charge predicted
       N       E                     dE             d eps       ncg     rms          rms(c)
DAV:   1    -0.203226060540E+03   -0.65907E-02   -0.72307E-01 11136   0.165E+00    0.148E-01
DAV:   2    -0.203227483760E+03   -0.14232E-02   -0.15325E-02 11400   0.250E-01    0.120E-01
DAV:   3    -0.203227818977E+03   -0.33522E-03   -0.13551E-03 11928   0.170E-01    0.223E-01
DAV:   4    -0.203227457635E+03    0.36134E-03   -0.10906E-03 11760   0.157E-01    0.105E-01
DAV:   5    -0.203227404111E+03    0.53524E-04   -0.31782E-04 11368   0.935E-02    0.757E-02
DAV:   6    -0.203227387512E+03    0.16599E-04   -0.16901E-04 11384   0.711E-02    0.608E-02
DAV:   7    -0.203227367972E+03    0.19540E-04   -0.12488E-04 11288   0.620E-02    0.418E-02
DAV:   8    -0.203227356429E+03    0.11543E-04   -0.44213E-05  7480   0.377E-02    0.225E-02
DAV:   9    -0.203227351667E+03    0.47623E-05   -0.13576E-05  6472   0.195E-02
  32 F= -.20322735E+03 E0= -.20063659E+03  d E =-.788866E-02
quench:  g(F)=  0.000E+00 g(S)=  0.000E+00 dE (1.order)= 0.000E+00
 bond charge predicted
       N       E                     dE             d eps       ncg     rms          rms(c)
DAV:   1    -0.203233495692E+03   -0.61393E-02   -0.13887E+00 11136   0.228E+00    0.226E-01
DAV:   2    -0.203236504108E+03   -0.30084E-02   -0.32594E-02 11320   0.360E-01    0.183E-01
DAV:   3    -0.203236957867E+03   -0.45376E-03   -0.26006E-03 12264   0.239E-01    0.287E-01
DAV:   4    -0.203236464163E+03    0.49370E-03   -0.22572E-03 11968   0.226E-01    0.183E-01
DAV:   5    -0.203236250798E+03    0.21337E-03   -0.86503E-04 11464   0.147E-01    0.107E-01
DAV:   6    -0.203236193955E+03    0.56842E-04   -0.43562E-04 11552   0.107E-01    0.894E-02
DAV:   7    -0.203236145995E+03    0.47960E-04   -0.26410E-04 11792   0.884E-02    0.536E-02
DAV:   8    -0.203236131661E+03    0.14334E-04   -0.97109E-05 11016   0.552E-02    0.387E-02
DAV:   9    -0.203236119748E+03    0.11913E-04   -0.29942E-05  7032   0.306E-02    0.152E-02
DAV:  10    -0.203236118736E+03    0.10121E-05   -0.75542E-06  6048   0.137E-02
  33 F= -.20323612E+03 E0= -.20064508E+03  d E =-.876707E-02
quench:  g(F)=  0.000E+00 g(S)=  0.000E+00 dE (1.order)= 0.000E+00
 bond charge predicted
       N       E                     dE             d eps       ncg     rms          rms(c)
DAV:   1    -0.203239457764E+03   -0.33380E-02   -0.84344E-01 11136   0.169E+00    0.219E-01
DAV:   2    -0.203241828697E+03   -0.23709E-02   -0.27251E-02 11344   0.300E-01    0.183E-01
DAV:   3    -0.203241982149E+03   -0.15345E-03   -0.17425E-03 13176   0.185E-01    0.245E-01
DAV:   4    -0.203241761776E+03    0.22037E-03   -0.19797E-03 11920   0.208E-01    0.191E-01
DAV:   5    -0.203241646155E+03    0.11562E-03   -0.13316E-03 11648   0.184E-01    0.165E-01
DAV:   6    -0.203241425193E+03    0.22096E-03   -0.58589E-04 11520   0.141E-01    0.897E-02
DAV:   7    -0.203241374305E+03    0.50888E-04   -0.26829E-04 11704   0.927E-02    0.551E-02
DAV:   8    -0.203241355574E+03    0.18731E-04   -0.92423E-05 10840   0.533E-02    0.337E-02
DAV:   9    -0.203241344722E+03    0.10852E-04   -0.24614E-05  6872   0.281E-02    0.105E-02
DAV:  10    -0.203241345852E+03   -0.11301E-05   -0.64891E-06  6040   0.116E-02
  34 F= -.20324135E+03 E0= -.20064998E+03  d E =-.522712E-02
quench:  g(F)=  0.000E+00 g(S)=  0.000E+00 dE (1.order)= 0.000E+00
 bond charge predicted
       N       E                     dE             d eps       ncg     rms          rms(c)
DAV:   1    -0.203245522320E+03   -0.41776E-02   -0.44697E-01 11136   0.123E+00    0.170E-01
DAV:   2    -0.203246872632E+03   -0.13503E-02   -0.15172E-02 11320   0.223E-01    0.140E-01
DAV:   3    -0.203246785169E+03    0.87462E-04   -0.83467E-04 12624   0.133E-01    0.128E-01
DAV:   4    -0.203246807926E+03   -0.22756E-04   -0.81100E-04 11624   0.139E-01    0.146E-01
DAV:   5    -0.203246829550E+03   -0.21624E-04   -0.93322E-04 11952   0.145E-01    0.157E-01
DAV:   6    -0.203246644761E+03    0.18479E-03   -0.53950E-04 11784   0.120E-01    0.837E-02
DAV:   7    -0.203246586364E+03    0.58397E-04   -0.16063E-04 11560   0.744E-02    0.390E-02
DAV:   8    -0.203246578394E+03    0.79697E-05   -0.60499E-05  9336   0.426E-02
  35 F= -.20324658E+03 E0= -.20065520E+03  d E =-.523254E-02
quench:  g(F)=  0.000E+00 g(S)=  0.000E+00 dE (1.order)= 0.000E+00
 bond charge predicted
       N       E                     dE             d eps       ncg     rms          rms(c)
DAV:   1    -0.203250003199E+03   -0.34168E-02   -0.34961E-01 11136   0.115E+00    0.104E-01
DAV:   2    -0.203250753952E+03   -0.75075E-03   -0.81032E-03 11336   0.176E-01    0.861E-02
DAV:   3    -0.203250765273E+03   -0.11322E-04   -0.43142E-04 12208   0.911E-02    0.951E-02
DAV:   4    -0.203250765137E+03    0.13628E-06   -0.36109E-04 11824   0.912E-02    0.981E-02
DAV:   5    -0.203250722178E+03    0.42959E-04   -0.27767E-04 11480   0.800E-02    0.704E-02
DAV:   6    -0.203250691281E+03    0.30897E-04   -0.10811E-04 10544   0.546E-02    0.411E-02
DAV:   7    -0.203250684287E+03    0.69938E-05   -0.63050E-05  9232   0.452E-02
  36 F= -.20325068E+03 E0= -.20065913E+03  d E =-.410589E-02
quench:  g(F)=  0.000E+00 g(S)=  0.000E+00 dE (1.order)= 0.000E+00
 bond charge predicted
       N       E                     dE             d eps       ncg     rms          rms(c)
DAV:   1    -0.203254492751E+03   -0.38015E-02   -0.75981E-01 11136   0.170E+00    0.159E-01
DAV:   2    -0.203256120035E+03   -0.16273E-02   -0.17304E-02 11224   0.262E-01    0.129E-01
DAV:   3    -0.203256125234E+03   -0.51995E-05   -0.99947E-04 12288   0.148E-01    0.131E-01
DAV:   4    -0.203256072069E+03    0.53165E-04   -0.59449E-04 11656   0.128E-01    0.122E-01
DAV:   5    -0.203256044052E+03    0.28017E-04   -0.49107E-04 11744   0.104E-01    0.107E-01
DAV:   6    -0.203256005105E+03    0.38948E-04   -0.32675E-04 11688   0.945E-02    0.852E-02
DAV:   7    -0.203255937418E+03    0.67686E-04   -0.16469E-04 11320   0.717E-02    0.363E-02
DAV:   8    -0.203255931965E+03    0.54535E-05   -0.58953E-05  9848   0.393E-02
  37 F= -.20325593E+03 E0= -.20066437E+03  d E =-.524768E-02
quench:  g(F)=  0.000E+00 g(S)=  0.000E+00 dE (1.order)= 0.000E+00
 bond charge predicted
       N       E                     dE             d eps       ncg     rms          rms(c)
DAV:   1    -0.203258273922E+03   -0.23365E-02   -0.69461E-01 11136   0.157E+00    0.178E-01
DAV:   2    -0.203260070007E+03   -0.17961E-02   -0.20313E-02 11312   0.259E-01    0.142E-01
DAV:   3    -0.203260063460E+03    0.65475E-05   -0.91349E-04 14144   0.122E-01    0.162E-01
DAV:   4    -0.203260076348E+03   -0.12889E-04   -0.11327E-03 11920   0.157E-01    0.165E-01
DAV:   5    -0.203259938350E+03    0.13800E-03   -0.82759E-04 11584   0.141E-01    0.116E-01
DAV:   6    -0.203259801830E+03    0.13652E-03   -0.34755E-04 11608   0.103E-01    0.438E-02
DAV:   7    -0.203259804632E+03   -0.28022E-05   -0.13088E-04 11616   0.575E-02    0.426E-02
DAV:   8    -0.203259788187E+03    0.16445E-04   -0.43404E-05  7504   0.372E-02    0.178E-02
DAV:   9    -0.203259786148E+03    0.20390E-05   -0.90525E-06  6096   0.151E-02
  38 F= -.20325979E+03 E0= -.20066806E+03  d E =-.385418E-02
quench:  g(F)=  0.000E+00 g(S)=  0.000E+00 dE (1.order)= 0.000E+00
 bond charge predicted
       N       E                     dE             d eps       ncg     rms          rms(c)
DAV:   1    -0.203262632630E+03   -0.28444E-02   -0.34492E-01 11136   0.108E+00    0.147E-01
DAV:   2    -0.203263681289E+03   -0.10487E-02   -0.11726E-02 11296   0.195E-01    0.124E-01
DAV:   3    -0.203263644375E+03    0.36914E-04   -0.70492E-04 12688   0.121E-01    0.128E-01
DAV:   4    -0.203263685781E+03   -0.41406E-04   -0.74409E-04 11808   0.129E-01    0.147E-01
DAV:   5    -0.203263570459E+03    0.11532E-03   -0.68314E-04 11848   0.127E-01    0.103E-01
DAV:   6    -0.203263479222E+03    0.91237E-04   -0.26906E-04 11664   0.833E-02    0.536E-02
DAV:   7    -0.203263462024E+03    0.17198E-04   -0.10826E-04 11280   0.587E-02    0.384E-02
DAV:   8    -0.203263454909E+03    0.71144E-05   -0.40160E-05  7376   0.370E-02
  39 F= -.20326345E+03 E0= -.20067182E+03  d E =-.366876E-02
quench:  g(F)=  0.000E+00 g(S)=  0.000E+00 dE (1.order)= 0.000E+00
 bond charge predicted
       N       E                     dE             d eps       ncg     rms          rms(c)
DAV:   1    -0.203265758430E+03   -0.22964E-02   -0.25650E-01 11136   0.980E-01    0.919E-02
DAV:   2    -0.203266339222E+03   -0.58079E-03   -0.63103E-03 11296   0.150E-01    0.741E-02
DAV:   3    -0.203266353325E+03   -0.14104E-04   -0.29521E-04 12416   0.761E-02    0.885E-02
DAV:   4    -0.203266338301E+03    0.15024E-04   -0.26741E-04 11736   0.792E-02    0.799E-02
DAV:   5    -0.203266327635E+03    0.10666E-04   -0.22386E-04 10800   0.730E-02    0.724E-02
DAV:   6    -0.203266292928E+03    0.34707E-04   -0.10265E-04  9832   0.553E-02    0.419E-02
DAV:   7    -0.203266281156E+03    0.11772E-04   -0.54441E-05  8184   0.418E-02    0.250E-02
DAV:   8    -0.203266277577E+03    0.35787E-05   -0.19991E-05  6584   0.235E-02
  40 F= -.20326628E+03 E0= -.20067456E+03  d E =-.282267E-02
quench:  g(F)=  0.000E+00 g(S)=  0.000E+00 dE (1.order)= 0.000E+00
 bond charge predicted
       N       E                     dE             d eps       ncg     rms          rms(c)
DAV:   1    -0.203268847391E+03   -0.25662E-02   -0.54999E-01 11136   0.144E+00    0.138E-01
DAV:   2    -0.203270048571E+03   -0.12012E-02   -0.12727E-02 11208   0.218E-01    0.104E-01
DAV:   3    -0.203270055640E+03   -0.70686E-05   -0.69923E-04 12216   0.122E-01    0.115E-01
DAV:   4    -0.203270013317E+03    0.42322E-04   -0.42617E-04 11744   0.103E-01    0.991E-02
DAV:   5    -0.203269993545E+03    0.19772E-04   -0.36265E-04 11688   0.915E-02    0.892E-02
DAV:   6    -0.203269956457E+03    0.37088E-04   -0.20904E-04 11520   0.723E-02    0.665E-02
DAV:   7    -0.203269921370E+03    0.35087E-04   -0.10140E-04 10968   0.574E-02    0.312E-02
DAV:   8    -0.203269917191E+03    0.41789E-05   -0.37557E-05  7120   0.331E-02
  41 F= -.20326992E+03 E0= -.20067824E+03  d E =-.363961E-02
quench:  g(F)=  0.000E+00 g(S)=  0.000E+00 dE (1.order)= 0.000E+00
 bond charge predicted
       N       E                     dE             d eps       ncg     rms          rms(c)
DAV:   1    -0.203271585615E+03   -0.16642E-02   -0.53060E-01 11136   0.137E+00    0.154E-01
DAV:   2    -0.203272975294E+03   -0.13897E-02   -0.15637E-02 11304   0.224E-01    0.125E-01
DAV:   3    -0.203272889966E+03    0.85327E-04   -0.57876E-04 13912   0.951E-02    0.105E-01
DAV:   4    -0.203272977822E+03   -0.87855E-04   -0.71524E-04 11696   0.128E-01    0.146E-01
DAV:   5    -0.203273028765E+03   -0.50944E-04   -0.91070E-04 12184   0.145E-01    0.165E-01
DAV:   6    -0.203272787495E+03    0.24127E-03   -0.48204E-04 11840   0.113E-01    0.563E-02
DAV:   7    -0.203272777642E+03    0.98533E-05   -0.12926E-04 11368   0.635E-02    0.451E-02
DAV:   8    -0.203272763412E+03    0.14230E-04   -0.49362E-05  7872   0.405E-02    0.245E-02
DAV:   9    -0.203272757804E+03    0.56077E-05   -0.13373E-05  6184   0.206E-02
  42 F= -.20327276E+03 E0= -.20068102E+03  d E =-.284061E-02
quench:  g(F)=  0.000E+00 g(S)=  0.000E+00 dE (1.order)= 0.000E+00
 bond charge predicted
       N       E                     dE             d eps       ncg     rms          rms(c)
DAV:   1    -0.203274814578E+03   -0.20512E-02   -0.28801E-01 11136   0.992E-01    0.131E-01
DAV:   2    -0.203275678348E+03   -0.86377E-03   -0.96738E-03 11296   0.173E-01    0.107E-01
DAV:   3    -0.203275628332E+03    0.50016E-04   -0.49197E-04 13176   0.983E-02    0.102E-01
DAV:   4    -0.203275663979E+03   -0.35648E-04   -0.51187E-04 11848   0.108E-01    0.123E-01
DAV:   5    -0.203275631345E+03    0.32635E-04   -0.56876E-04 11912   0.115E-01    0.111E-01
DAV:   6    -0.203275539066E+03    0.92279E-04   -0.26797E-04 11560   0.868E-02    0.626E-02
DAV:   7    -0.203275506717E+03    0.32348E-04   -0.95634E-05 10848   0.574E-02    0.302E-02
DAV:   8    -0.203275501898E+03    0.48196E-05   -0.33454E-05  6992   0.323E-02
  43 F= -.20327550E+03 E0= -.20068383E+03  d E =-.274409E-02
quench:  g(F)=  0.000E+00 g(S)=  0.000E+00 dE (1.order)= 0.000E+00
 bond charge predicted
       N       E                     dE             d eps       ncg     rms          rms(c)
DAV:   1    -0.203277215066E+03   -0.17083E-02   -0.20698E-01 11136   0.876E-01    0.864E-02
DAV:   2    -0.203277706382E+03   -0.49132E-03   -0.54102E-03 11296   0.133E-01    0.678E-02
DAV:   3    -0.203277688494E+03    0.17888E-04   -0.18859E-04 13088   0.545E-02    0.596E-02
DAV:   4    -0.203277710105E+03   -0.21610E-04   -0.21162E-04 11728   0.704E-02    0.787E-02
DAV:   5    -0.203277720400E+03   -0.10295E-04   -0.24148E-04  9584   0.742E-02    0.851E-02
DAV:   6    -0.203277655892E+03    0.64508E-04   -0.12969E-04  8448   0.582E-02    0.264E-02
DAV:   7    -0.203277655832E+03    0.60092E-07   -0.35276E-05  7240   0.333E-02
  44 F= -.20327766E+03 E0= -.20068596E+03  d E =-.215393E-02
quench:  g(F)=  0.000E+00 g(S)=  0.000E+00 dE (1.order)= 0.000E+00
 bond charge predicted
       N       E                     dE             d eps       ncg     rms          rms(c)
DAV:   1    -0.203279535868E+03   -0.18800E-02   -0.42066E-01 11136   0.126E+00    0.123E-01
DAV:   2    -0.203280489186E+03   -0.95332E-03   -0.10071E-02 11208   0.191E-01    0.960E-02
DAV:   3    -0.203280497562E+03   -0.83765E-05   -0.54524E-04 12304   0.112E-01    0.103E-01
DAV:   4    -0.203280419107E+03    0.78455E-04   -0.25669E-04 11360   0.901E-02    0.622E-02
DAV:   5    -0.203280428934E+03   -0.98275E-05   -0.16057E-04 11648   0.679E-02    0.709E-02
DAV:   6    -0.203280465697E+03   -0.36763E-04   -0.25321E-04  9576   0.780E-02    0.977E-02
DAV:   7    -0.203280380615E+03    0.85082E-04   -0.17439E-04  9952   0.649E-02    0.265E-02
DAV:   8    -0.203280378042E+03    0.25731E-05   -0.28717E-05  6856   0.265E-02
  45 F= -.20328038E+03 E0= -.20068880E+03  d E =-.272221E-02
quench:  g(F)=  0.000E+00 g(S)=  0.000E+00 dE (1.order)= 0.000E+00
 bond charge predicted
       N       E                     dE             d eps       ncg     rms          rms(c)
DAV:   1    -0.203281701504E+03   -0.13209E-02   -0.43272E-01 11136   0.124E+00    0.138E-01
DAV:   2    -0.203282830077E+03   -0.11286E-02   -0.12685E-02 11296   0.199E-01    0.111E-01
DAV:   3    -0.203282768673E+03    0.61404E-04   -0.45246E-04 13960   0.839E-02    0.952E-02
DAV:   4    -0.203282926941E+03   -0.15827E-03   -0.70768E-04 11936   0.127E-01    0.165E-01
DAV:   5    -0.203282774037E+03    0.15290E-03   -0.68121E-04 11808   0.125E-01    0.104E-01
DAV:   6    -0.203282675212E+03    0.98824E-04   -0.26387E-04 11592   0.845E-02    0.421E-02
DAV:   7    -0.203282667696E+03    0.75166E-05   -0.90590E-05 11088   0.496E-02
  46 F= -.20328267E+03 E0= -.20069107E+03  d E =-.228965E-02
quench:  g(F)=  0.000E+00 g(S)=  0.000E+00 dE (1.order)= 0.000E+00
 bond charge predicted
       N       E                     dE             d eps       ncg     rms          rms(c)
DAV:   1    -0.203284253504E+03   -0.15783E-02   -0.26016E-01 11136   0.945E-01    0.123E-01
DAV:   2    -0.203285075157E+03   -0.82165E-03   -0.88110E-03 11304   0.173E-01    0.118E-01
DAV:   3    -0.203285049860E+03    0.25296E-04   -0.57482E-04 12160   0.124E-01    0.120E-01
DAV:   4    -0.203284950923E+03    0.98938E-04   -0.33710E-04 11408   0.923E-02    0.745E-02
DAV:   5    -0.203285069432E+03   -0.11851E-03   -0.46348E-04 12016   0.104E-01    0.138E-01
DAV:   6    -0.203284933811E+03    0.13562E-03   -0.40990E-04 11792   0.100E-01    0.713E-02
DAV:   7    -0.203284882772E+03    0.51038E-04   -0.10804E-04 10448   0.599E-02    0.238E-02
DAV:   8    -0.203284882300E+03    0.47218E-06   -0.32851E-05  7168   0.285E-02
  47 F= -.20328488E+03 E0= -.20069341E+03  d E =-.221460E-02
quench:  g(F)=  0.000E+00 g(S)=  0.000E+00 dE (1.order)= 0.000E+00
 bond charge predicted
       N       E                     dE             d eps       ncg     rms          rms(c)
DAV:   1    -0.203286278251E+03   -0.13955E-02   -0.17839E-01 11136   0.807E-01    0.845E-02
DAV:   2    -0.203286726906E+03   -0.44865E-03   -0.49585E-03 11288   0.126E-01    0.702E-02
DAV:   3    -0.203286717571E+03    0.93356E-05   -0.21086E-04 12736   0.640E-02    0.691E-02
DAV:   4    -0.203286741799E+03   -0.24228E-04   -0.25106E-04 11640   0.757E-02    0.890E-02
DAV:   5    -0.203286704578E+03    0.37221E-04   -0.22158E-04 11192   0.712E-02    0.617E-02
DAV:   6    -0.203286671304E+03    0.33274E-04   -0.88710E-05  8760   0.488E-02    0.269E-02
DAV:   7    -0.203286667822E+03    0.34816E-05   -0.36415E-05  7504   0.323E-02
  48 F= -.20328667E+03 E0= -.20069517E+03  d E =-.178552E-02
quench:  g(F)=  0.000E+00 g(S)=  0.000E+00 dE (1.order)= 0.000E+00
 bond charge predicted
       N       E                     dE             d eps       ncg     rms          rms(c)
DAV:   1    -0.203288168530E+03   -0.14972E-02   -0.33187E-01 11136   0.112E+00    0.111E-01
DAV:   2    -0.203288949512E+03   -0.78098E-03   -0.82348E-03 11216   0.170E-01    0.892E-02
DAV:   3    -0.203288947233E+03    0.22793E-05   -0.46972E-04 12136   0.105E-01    0.951E-02
DAV:   4    -0.203288899536E+03    0.47696E-04   -0.24923E-04 11688   0.812E-02    0.685E-02
DAV:   5    -0.203288924417E+03   -0.24881E-04   -0.24256E-04 11072   0.748E-02    0.872E-02
DAV:   6    -0.203288883841E+03    0.40577E-04   -0.18144E-04 10840   0.672E-02    0.580E-02
DAV:   7    -0.203288855211E+03    0.28630E-04   -0.68039E-05  8960   0.487E-02    0.261E-02
DAV:   8    -0.203288852359E+03    0.28521E-05   -0.29123E-05  6728   0.285E-02
  49 F= -.20328885E+03 E0= -.20069748E+03  d E =-.218454E-02
quench:  g(F)=  0.000E+00 g(S)=  0.000E+00 dE (1.order)= 0.000E+00
 bond charge predicted
       N       E                     dE             d eps       ncg     rms          rms(c)
DAV:   1    -0.203290017534E+03   -0.11623E-02   -0.36102E-01 11136   0.114E+00    0.125E-01
DAV:   2    -0.203290958149E+03   -0.94062E-03   -0.10508E-02 11280   0.180E-01    0.102E-01
DAV:   3    -0.203290913283E+03    0.44866E-04   -0.38998E-04 13304   0.831E-02    0.901E-02
DAV:   4    -0.203291012157E+03   -0.98874E-04   -0.55234E-04 11832   0.113E-01    0.141E-01
DAV:   5    -0.203290915307E+03    0.96849E-04   -0.53446E-04 11816   0.111E-01    0.963E-02
DAV:   6    -0.203290834635E+03    0.80673E-04   -0.21489E-04 11344   0.772E-02    0.433E-02
DAV:   7    -0.203290827133E+03    0.75018E-05   -0.80795E-05 10784   0.495E-02
  50 F= -.20329083E+03 E0= -.20069941E+03  d E =-.197477E-02
quench:  g(F)=  0.000E+00 g(S)=  0.000E+00 dE (1.order)= 0.000E+00
 bond charge predicted
       N       E                     dE             d eps       ncg     rms          rms(c)
DAV:   1    -0.203292129338E+03   -0.12947E-02   -0.24684E-01 11136   0.924E-01    0.118E-01
DAV:   2    -0.203292909547E+03   -0.78021E-03   -0.82658E-03 11280   0.171E-01    0.120E-01
DAV:   3    -0.203292869116E+03    0.40430E-04   -0.53286E-04 12216   0.120E-01    0.108E-01
DAV:   4    -0.203292774235E+03    0.94881E-04   -0.26645E-04 11272   0.860E-02    0.624E-02
DAV:   5    -0.203292775315E+03   -0.10794E-05   -0.20244E-04 11576   0.740E-02    0.682E-02
DAV:   6    -0.203292730203E+03    0.45112E-04   -0.12227E-04 11280   0.624E-02    0.342E-02
DAV:   7    -0.203292753045E+03   -0.22842E-04   -0.97633E-05  7560   0.477E-02    0.597E-02
DAV:   8    -0.203292725263E+03    0.27782E-04   -0.69833E-05  6792   0.408E-02    0.226E-02
DAV:   9    -0.203292720278E+03    0.49848E-05   -0.97563E-06  6016   0.177E-02
  51 F= -.20329272E+03 E0= -.20070148E+03  d E =-.189314E-02
quench:  g(F)=  0.000E+00 g(S)=  0.000E+00 dE (1.order)= 0.000E+00
 bond charge predicted
       N       E                     dE             d eps       ncg     rms          rms(c)
DAV:   1    -0.203293958574E+03   -0.12333E-02   -0.16501E-01 11136   0.769E-01    0.849E-02
DAV:   2    -0.203294384741E+03   -0.42617E-03   -0.47780E-03 11288   0.120E-01    0.682E-02
DAV:   3    -0.203294385912E+03   -0.11709E-05   -0.20371E-04 13304   0.611E-02    0.769E-02
DAV:   4    -0.203294390971E+03   -0.50589E-05   -0.26596E-04 11656   0.773E-02    0.824E-02
DAV:   5    -0.203294361939E+03    0.29033E-04   -0.19762E-04 11456   0.688E-02    0.607E-02
DAV:   6    -0.203294327794E+03    0.34144E-04   -0.91194E-05  9648   0.513E-02    0.253E-02
DAV:   7    -0.203294325830E+03    0.19643E-05   -0.30877E-05  7144   0.307E-02
  52 F= -.20329433E+03 E0= -.20070311E+03  d E =-.160555E-02
quench:  g(F)=  0.000E+00 g(S)=  0.000E+00 dE (1.order)= 0.000E+00
 bond charge predicted
       N       E                     dE             d eps       ncg     rms          rms(c)
DAV:   1    -0.203295611963E+03   -0.12842E-02   -0.27061E-01 11136   0.101E+00    0.102E-01
DAV:   2    -0.203296297257E+03   -0.68529E-03   -0.70003E-03 11240   0.159E-01    0.977E-02
DAV:   3    -0.203296310746E+03   -0.13489E-04   -0.48248E-04 11856   0.117E-01    0.110E-01
DAV:   4    -0.203296211534E+03    0.99212E-04   -0.20142E-04 11424   0.764E-02    0.491E-02
DAV:   5    -0.203296282067E+03   -0.70533E-04   -0.22881E-04 11216   0.730E-02    0.102E-01
DAV:   6    -0.203296209716E+03    0.72351E-04   -0.21214E-04 10360   0.709E-02    0.503E-02
DAV:   7    -0.203296186354E+03    0.23362E-04   -0.60410E-05  8600   0.441E-02    0.220E-02
DAV:   8    -0.203296184903E+03    0.14509E-05   -0.24364E-05  6696   0.244E-02
  53 F= -.20329618E+03 E0= -.20070507E+03  d E =-.185907E-02
quench:  g(F)=  0.000E+00 g(S)=  0.000E+00 dE (1.order)= 0.000E+00
 bond charge predicted
       N       E                     dE             d eps       ncg     rms          rms(c)
DAV:   1    -0.203297268115E+03   -0.10818E-02   -0.30520E-01 11136   0.105E+00    0.114E-01
DAV:   2    -0.203298053237E+03   -0.78512E-03   -0.87785E-03 11288   0.162E-01    0.910E-02
DAV:   3    -0.203298016912E+03    0.36325E-04   -0.30430E-04 13624   0.712E-02    0.809E-02
DAV:   4    -0.203298112885E+03   -0.95972E-04   -0.47767E-04 11968   0.104E-01    0.132E-01
DAV:   5    -0.203298004425E+03    0.10846E-03   -0.41290E-04 11784   0.981E-02    0.767E-02
DAV:   6    -0.203297954008E+03    0.50416E-04   -0.16053E-04 11320   0.671E-02    0.379E-02
DAV:   7    -0.203297945794E+03    0.82141E-05   -0.60919E-05  9752   0.417E-02
  54 F= -.20329795E+03 E0= -.20070684E+03  d E =-.176089E-02
quench:  g(F)=  0.000E+00 g(S)=  0.000E+00 dE (1.order)= 0.000E+00
 bond charge predicted
       N       E                     dE             d eps       ncg     rms          rms(c)
DAV:   1    -0.203299073390E+03   -0.11194E-02   -0.23616E-01 11136   0.907E-01    0.113E-01
DAV:   2    -0.203299825306E+03   -0.75192E-03   -0.77379E-03 11288   0.168E-01    0.122E-01
DAV:   3    -0.203299779197E+03    0.46110E-04   -0.54353E-04 11976   0.125E-01    0.111E-01
DAV:   4    -0.203299676383E+03    0.10281E-03   -0.23469E-04 11424   0.776E-02    0.536E-02
DAV:   5    -0.203299730357E+03   -0.53974E-04   -0.25031E-04 11608   0.807E-02    0.971E-02
DAV:   6    -0.203299713992E+03    0.16365E-04   -0.32709E-04 10736   0.876E-02    0.911E-02
DAV:   7    -0.203299636489E+03    0.77503E-04   -0.14851E-04  9560   0.631E-02    0.225E-02
DAV:   8    -0.203299635924E+03    0.56433E-06   -0.27004E-05  6912   0.255E-02
  55 F= -.20329964E+03 E0= -.20070868E+03  d E =-.169013E-02
quench:  g(F)=  0.000E+00 g(S)=  0.000E+00 dE (1.order)= 0.000E+00
 bond charge predicted
       N       E                     dE             d eps       ncg     rms          rms(c)
DAV:   1    -0.203300781008E+03   -0.11445E-02   -0.15987E-01 11136   0.752E-01    0.857E-02
DAV:   2    -0.203301209853E+03   -0.42884E-03   -0.47982E-03 11280   0.120E-01    0.726E-02
DAV:   3    -0.203301231377E+03   -0.21524E-04   -0.25580E-04 12736   0.729E-02    0.933E-02
DAV:   4    -0.203301199372E+03    0.32005E-04   -0.29256E-04 11720   0.804E-02    0.752E-02
DAV:   5    -0.203301178713E+03    0.20658E-04   -0.18952E-04 11488   0.673E-02    0.603E-02
DAV:   6    -0.203301145580E+03    0.33134E-04   -0.94563E-05  9936   0.510E-02    0.258E-02
DAV:   7    -0.203301142111E+03    0.34688E-05   -0.32532E-05  7336   0.312E-02
  56 F= -.20330114E+03 E0= -.20071017E+03  d E =-.150619E-02
quench:  g(F)=  0.000E+00 g(S)=  0.000E+00 dE (1.order)= 0.000E+00
 bond charge predicted
       N       E                     dE             d eps       ncg     rms          rms(c)
DAV:   1    -0.203302318424E+03   -0.11728E-02   -0.23317E-01 11136   0.932E-01    0.963E-02
DAV:   2    -0.203302908635E+03   -0.59021E-03   -0.62156E-03 11240   0.145E-01    0.833E-02
DAV:   3    -0.203302896505E+03    0.12130E-04   -0.36091E-04 12136   0.938E-02    0.828E-02
DAV:   4    -0.203302863352E+03    0.33153E-04   -0.19550E-04 11632   0.706E-02    0.627E-02
DAV:   5    -0.203302882659E+03   -0.19307E-04   -0.20298E-04 10128   0.685E-02    0.787E-02
DAV:   6    -0.203302848200E+03    0.34459E-04   -0.14504E-04  9720   0.606E-02    0.517E-02
DAV:   7    -0.203302825215E+03    0.22985E-04   -0.53294E-05  7952   0.438E-02    0.229E-02
DAV:   8    -0.203302823219E+03    0.19965E-05   -0.22357E-05  6544   0.252E-02
  57 F= -.20330282E+03 E0= -.20071201E+03  d E =-.168111E-02
quench:  g(F)=  0.000E+00 g(S)=  0.000E+00 dE (1.order)= 0.000E+00
 bond charge predicted
       N       E                     dE             d eps       ncg     rms          rms(c)
DAV:   1    -0.203303876474E+03   -0.10513E-02   -0.26975E-01 11136   0.985E-01    0.107E-01
DAV:   2    -0.203304566414E+03   -0.68994E-03   -0.76824E-03 11280   0.151E-01    0.860E-02
DAV:   3    -0.203304541092E+03    0.25322E-04   -0.28442E-04 13040   0.727E-02    0.805E-02
DAV:   4    -0.203304600883E+03   -0.59790E-04   -0.40004E-04 11888   0.956E-02    0.117E-01
DAV:   5    -0.203304530284E+03    0.70599E-04   -0.35650E-04 11760   0.911E-02    0.774E-02
DAV:   6    -0.203304481979E+03    0.48305E-04   -0.14625E-04 10832   0.648E-02    0.397E-02
DAV:   7    -0.203304474113E+03    0.78657E-05   -0.58284E-05  9456   0.433E-02
  58 F= -.20330447E+03 E0= -.20071364E+03  d E =-.165089E-02
quench:  g(F)=  0.000E+00 g(S)=  0.000E+00 dE (1.order)= 0.000E+00
 bond charge predicted
       N       E                     dE             d eps       ncg     rms          rms(c)
DAV:   1    -0.203305513346E+03   -0.10314E-02   -0.22826E-01 11136   0.895E-01    0.108E-01
DAV:   2    -0.203306199739E+03   -0.68639E-03   -0.73404E-03 11288   0.157E-01    0.104E-01
DAV:   3    -0.203306171710E+03    0.28029E-04   -0.43193E-04 12264   0.105E-01    0.973E-02
DAV:   4    -0.203306108827E+03    0.62884E-04   -0.24352E-04 11304   0.813E-02    0.660E-02
DAV:   5    -0.203306192888E+03   -0.84061E-04   -0.33122E-04 11808   0.884E-02    0.119E-01
DAV:   6    -0.203306098636E+03    0.94252E-04   -0.31656E-04 11280   0.866E-02    0.643E-02
DAV:   7    -0.203306059037E+03    0.39599E-04   -0.91145E-05  9584   0.539E-02    0.253E-02
DAV:   8    -0.203306057248E+03    0.17890E-05   -0.28599E-05  7128   0.278E-02
  59 F= -.20330606E+03 E0= -.20071542E+03  d E =-.158314E-02
quench:  g(F)=  0.000E+00 g(S)=  0.000E+00 dE (1.order)= 0.000E+00
 bond charge predicted
       N       E                     dE             d eps       ncg     rms          rms(c)
DAV:   1    -0.203307136574E+03   -0.10775E-02   -0.15736E-01 11136   0.743E-01    0.866E-02
DAV:   2    -0.203307562458E+03   -0.42588E-03   -0.48042E-03 11296   0.119E-01    0.714E-02
DAV:   3    -0.203307548727E+03    0.13731E-04   -0.19793E-04 13048   0.617E-02    0.709E-02
DAV:   4    -0.203307578609E+03   -0.29882E-04   -0.27887E-04 11664   0.791E-02    0.932E-02
DAV:   5    -0.203307532574E+03    0.46035E-04   -0.23026E-04 11520   0.742E-02    0.613E-02
DAV:   6    -0.203307500121E+03    0.32453E-04   -0.91969E-05  9208   0.530E-02    0.306E-02
DAV:   7    -0.203307496083E+03    0.40375E-05   -0.35151E-05  7240   0.346E-02
  60 F= -.20330750E+03 E0= -.20071686E+03  d E =-.143884E-02
quench:  g(F)=  0.000E+00 g(S)=  0.000E+00 dE (1.order)= 0.000E+00
 bond charge predicted
       N       E                     dE             d eps       ncg     rms          rms(c)
DAV:   1    -0.203308593356E+03   -0.10932E-02   -0.20486E-01 11136   0.870E-01    0.925E-02
DAV:   2    -0.203309152954E+03   -0.55960E-03   -0.56804E-03 11240   0.145E-01    0.961E-02
DAV:   3    -0.203309135631E+03    0.17323E-04   -0.40410E-04 11904   0.107E-01    0.923E-02
DAV:   4    -0.203309068853E+03    0.66779E-04   -0.15627E-04 11432   0.660E-02    0.467E-02
DAV:   5    -0.203309118000E+03   -0.49147E-04   -0.18320E-04 11160   0.665E-02    0.888E-02
DAV:   6    -0.203309075318E+03    0.42682E-04   -0.19150E-04  9112   0.672E-02    0.565E-02
DAV:   7    -0.203309045685E+03    0.29634E-04   -0.63510E-05  7624   0.452E-02    0.220E-02
DAV:   8    -0.203309043786E+03    0.18988E-05   -0.23816E-05  6728   0.248E-02
  61 F= -.20330904E+03 E0= -.20071857E+03  d E =-.154770E-02
quench:  g(F)=  0.000E+00 g(S)=  0.000E+00 dE (1.order)= 0.000E+00
 bond charge predicted
       N       E                     dE             d eps       ncg     rms          rms(c)
DAV:   1    -0.203310063459E+03   -0.10178E-02   -0.23792E-01 11136   0.926E-01    0.999E-02
DAV:   2    -0.203310668125E+03   -0.60467E-03   -0.67279E-03 11288   0.140E-01    0.802E-02
DAV:   3    -0.203310651300E+03    0.16824E-04   -0.25920E-04 12864   0.704E-02    0.791E-02
DAV:   4    -0.203310692751E+03   -0.41450E-04   -0.35140E-04 11840   0.894E-02    0.106E-01
DAV:   5    -0.203310632527E+03    0.60223E-04   -0.29636E-04 11696   0.833E-02    0.693E-02
DAV:   6    -0.203310591610E+03    0.40917E-04   -0.12568E-04 10632   0.587E-02    0.333E-02
DAV:   7    -0.203310584561E+03    0.70487E-05   -0.46685E-05  8824   0.370E-02
  62 F= -.20331058E+03 E0= -.20072009E+03  d E =-.154078E-02
quench:  g(F)=  0.000E+00 g(S)=  0.000E+00 dE (1.order)= 0.000E+00
 bond charge predicted
       N       E                     dE             d eps       ncg     rms          rms(c)
[...]
DAV:   2    -0.203417620570E+03   -0.38816E-03   -0.40069E-03 11288   0.117E-01    0.864E-02
DAV:   3    -0.203417590737E+03    0.29832E-04   -0.22426E-04 11936   0.821E-02    0.747E-02
DAV:   4    -0.203417547267E+03    0.43471E-04   -0.10568E-04 11160   0.515E-02    0.389E-02
DAV:   5    -0.203417591663E+03   -0.44396E-04   -0.14883E-04 11224   0.606E-02    0.810E-02
DAV:   6    -0.203417556285E+03    0.35378E-04   -0.17315E-04  7776   0.637E-02    0.534E-02
DAV:   7    -0.203417530395E+03    0.25890E-04   -0.58002E-05  7152   0.416E-02    0.193E-02
DAV:   8    -0.203417529607E+03    0.78778E-06   -0.18697E-05  6320   0.221E-02
 145 F= -.20341753E+03 E0= -.20083304E+03  d E =-.115172E-02
quench:  g(F)=  0.000E+00 g(S)=  0.000E+00 dE (1.order)= 0.000E+00
 bond charge predicted
       N       E                     dE             d eps       ncg     rms          rms(c)
DAV:   1    -0.203418316654E+03   -0.78626E-03   -0.15041E-01 11136   0.728E-01    0.817E-02
DAV:   2    -0.203418688778E+03   -0.37212E-03   -0.41697E-03 11248   0.103E-01    0.612E-02
DAV:   3    -0.203418704428E+03   -0.15651E-04   -0.20182E-04 12640   0.630E-02    0.829E-02
DAV:   4    -0.203418681656E+03    0.22772E-04   -0.23152E-04 11416   0.726E-02    0.673E-02
DAV:   5    -0.203418667204E+03    0.14453E-04   -0.15613E-04 11112   0.639E-02    0.573E-02
DAV:   6    -0.203418642531E+03    0.24673E-04   -0.69280E-05  8360   0.490E-02    0.343E-02
DAV:   7    -0.203418633606E+03    0.89251E-05   -0.31852E-05  7288   0.326E-02
 146 F= -.20341863E+03 E0= -.20083404E+03  d E =-.110400E-02
quench:  g(F)=  0.000E+00 g(S)=  0.000E+00 dE (1.order)= 0.000E+00
 bond charge predicted
       N       E                     dE             d eps       ncg     rms          rms(c)
DAV:   1    -0.203419467934E+03   -0.82540E-03   -0.12218E-01 11136   0.648E-01    0.761E-02
DAV:   2    -0.203419817047E+03   -0.34911E-03   -0.38506E-03 11272   0.103E-01    0.683E-02
DAV:   3    -0.203419792023E+03    0.25024E-04   -0.14666E-04 12432   0.568E-02    0.590E-02
DAV:   4    -0.203419790266E+03    0.17571E-05   -0.14684E-04 11424   0.568E-02    0.588E-02
DAV:   5    -0.203419827300E+03   -0.37034E-04   -0.21304E-04  9192   0.700E-02    0.874E-02
DAV:   6    -0.203419758049E+03    0.69251E-04   -0.12712E-04  7992   0.562E-02    0.243E-02
DAV:   7    -0.203419757104E+03    0.94474E-06   -0.27228E-05  6952   0.308E-02
 147 F= -.20341976E+03 E0= -.20083539E+03  d E =-.112350E-02
quench:  g(F)=  0.000E+00 g(S)=  0.000E+00 dE (1.order)= 0.000E+00
 bond charge predicted
       N       E                     dE             d eps       ncg     rms          rms(c)
DAV:   1    -0.203420548256E+03   -0.79021E-03   -0.13962E-01 11136   0.703E-01    0.794E-02
DAV:   2    -0.203420931390E+03   -0.38313E-03   -0.39080E-03 11224   0.117E-01    0.878E-02
DAV:   3    -0.203420919889E+03    0.11501E-04   -0.29060E-04 11944   0.914E-02    0.856E-02
DAV:   4    -0.203420916942E+03    0.29468E-05   -0.24886E-04 11408   0.756E-02    0.878E-02
DAV:   5    -0.203420860029E+03    0.56913E-04   -0.18247E-04 10040   0.662E-02    0.445E-02
DAV:   6    -0.203420854472E+03    0.55567E-05   -0.73670E-05  9904   0.470E-02
 148 F= -.20342085E+03 E0= -.20083654E+03  d E =-.109737E-02
quench:  g(F)=  0.000E+00 g(S)=  0.000E+00 dE (1.order)= 0.000E+00
 bond charge predicted
       N       E                     dE             d eps       ncg     rms          rms(c)
DAV:   1    -0.203421694701E+03   -0.83467E-03   -0.12951E-01 11136   0.674E-01    0.761E-02
DAV:   2    -0.203422083875E+03   -0.38917E-03   -0.39602E-03 11256   0.121E-01    0.907E-02
DAV:   3    -0.203422042197E+03    0.41679E-04   -0.26369E-04 12072   0.831E-02    0.691E-02
DAV:   4    -0.203422036956E+03    0.52408E-05   -0.15565E-04 11000   0.590E-02    0.700E-02
DAV:   5    -0.203422016150E+03    0.20805E-04   -0.14813E-04  8840   0.581E-02    0.511E-02
DAV:   6    -0.203422012934E+03    0.32160E-05   -0.81296E-05  9136   0.483E-02
 149 F= -.20342201E+03 E0= -.20083772E+03  d E =-.115846E-02
quench:  g(F)=  0.000E+00 g(S)=  0.000E+00 dE (1.order)= 0.000E+00
 bond charge predicted
       N       E                     dE             d eps       ncg     rms          rms(c)
DAV:   1    -0.203422793348E+03   -0.77720E-03   -0.15877E-01 11136   0.752E-01    0.835E-02
DAV:   2    -0.203423243025E+03   -0.44968E-03   -0.43967E-03 11168   0.131E-01    0.102E-01
DAV:   3    -0.203423202294E+03    0.40731E-04   -0.33715E-04 11808   0.100E-01    0.835E-02
DAV:   4    -0.203423204738E+03   -0.24446E-05   -0.24266E-04 11488   0.756E-02    0.899E-02
DAV:   5    -0.203423147445E+03    0.57294E-04   -0.19910E-04 10032   0.684E-02    0.477E-02
DAV:   6    -0.203423142217E+03    0.52279E-05   -0.84484E-05 10416   0.495E-02
 150 F= -.20342314E+03 E0= -.20083896E+03  d E =-.112928E-02
quench:  g(F)=  0.000E+00 g(S)=  0.000E+00 dE (1.order)= 0.000E+00
 bond charge predicted
       N       E                     dE             d eps       ncg     rms          rms(c)
DAV:   1    -0.203423958492E+03   -0.81105E-03   -0.13231E-01 11136   0.677E-01    0.796E-02
DAV:   2    -0.203424370924E+03   -0.41243E-03   -0.41845E-03 11248   0.128E-01    0.966E-02
DAV:   3    -0.203424318123E+03    0.52801E-04   -0.28595E-04 12040   0.876E-02    0.704E-02
DAV:   4    -0.203424304462E+03    0.13661E-04   -0.14886E-04 11320   0.579E-02    0.649E-02
DAV:   5    -0.203424304714E+03   -0.25173E-06   -0.16853E-04  9192   0.620E-02    0.648E-02
DAV:   6    -0.203424287776E+03    0.16937E-04   -0.11625E-04 10128   0.566E-02    0.503E-02
DAV:   7    -0.203424266034E+03    0.21743E-04   -0.52757E-05  7776   0.433E-02    0.224E-02
DAV:   8    -0.203424262571E+03    0.34631E-05   -0.17001E-05  6408   0.239E-02
 151 F= -.20342426E+03 E0= -.20084015E+03  d E =-.112035E-02
quench:  g(F)=  0.000E+00 g(S)=  0.000E+00 dE (1.order)= 0.000E+00
 bond charge predicted
       N       E                     dE             d eps       ncg     rms          rms(c)
DAV:   1    -0.203425025123E+03   -0.75909E-03   -0.13974E-01 11136   0.700E-01    0.799E-02
DAV:   2    -0.203425377887E+03   -0.35276E-03   -0.39357E-03 11256   0.101E-01    0.621E-02
DAV:   3    -0.203425413205E+03   -0.35318E-04   -0.23736E-04 12328   0.716E-02    0.951E-02
DAV:   4    -0.203425364148E+03    0.49057E-04   -0.24587E-04 11376   0.746E-02    0.623E-02
DAV:   5    -0.203425351658E+03    0.12490E-04   -0.13464E-04 11096   0.609E-02    0.536E-02
DAV:   6    -0.203425333463E+03    0.18194E-04   -0.67283E-05  8416   0.483E-02    0.374E-02
DAV:   7    -0.203425321221E+03    0.12242E-04   -0.32842E-05  7360   0.338E-02    0.156E-02
DAV:   8    -0.203425320058E+03    0.11629E-05   -0.84844E-06  5984   0.157E-02
 152 F= -.20342532E+03 E0= -.20084111E+03  d E =-.105749E-02
quench:  g(F)=  0.000E+00 g(S)=  0.000E+00 dE (1.order)= 0.000E+00
 bond charge predicted
       N       E                     dE             d eps       ncg     rms          rms(c)
DAV:   1    -0.203426129103E+03   -0.80788E-03   -0.11499E-01 11136   0.630E-01    0.730E-02
DAV:   2    -0.203426446923E+03   -0.31782E-03   -0.35302E-03 11280   0.960E-02    0.616E-02
DAV:   3    -0.203426422151E+03    0.24772E-04   -0.10554E-04 12592   0.450E-02    0.505E-02
DAV:   4    -0.203426438628E+03   -0.16477E-04   -0.14236E-04 11528   0.571E-02    0.658E-02
DAV:   5    -0.203426456908E+03   -0.18280E-04   -0.20416E-04  9192   0.691E-02    0.799E-02
DAV:   6    -0.203426401400E+03    0.55509E-04   -0.11313E-04  7824   0.550E-02    0.301E-02
DAV:   7    -0.203426396272E+03    0.51277E-05   -0.27560E-05  7008   0.310E-02
 153 F= -.20342640E+03 E0= -.20084240E+03  d E =-.107621E-02
quench:  g(F)=  0.000E+00 g(S)=  0.000E+00 dE (1.order)= 0.000E+00
 bond charge predicted
       N       E                     dE             d eps       ncg     rms          rms(c)
DAV:   1    -0.203427159488E+03   -0.75809E-03   -0.14094E-01 11136   0.708E-01    0.780E-02
DAV:   2    -0.203427514101E+03   -0.35461E-03   -0.38572E-03 11232   0.105E-01    0.686E-02
DAV:   3    -0.203427552340E+03   -0.38239E-04   -0.29047E-04 12216   0.821E-02    0.984E-02
DAV:   4    -0.203427507735E+03    0.44605E-04   -0.26663E-04 11304   0.778E-02    0.720E-02
DAV:   5    -0.203427471027E+03    0.36709E-04   -0.14616E-04 10824   0.600E-02    0.419E-02
DAV:   6    -0.203427464446E+03    0.65805E-05   -0.54458E-05  8240   0.416E-02
 154 F= -.20342746E+03 E0= -.20084338E+03  d E =-.106817E-02
quench:  g(F)=  0.000E+00 g(S)=  0.000E+00 dE (1.order)= 0.000E+00
 bond charge predicted
       N       E                     dE             d eps       ncg     rms          rms(c)
DAV:   1    -0.203428282291E+03   -0.81126E-03   -0.13069E-01 11136   0.676E-01    0.768E-02
DAV:   2    -0.203428694561E+03   -0.41227E-03   -0.40503E-03 11256   0.123E-01    0.997E-02
DAV:   3    -0.203428643952E+03    0.50609E-04   -0.25189E-04 11952   0.870E-02    0.725E-02
DAV:   4    -0.203428627658E+03    0.16294E-04   -0.14691E-04 10704   0.581E-02    0.680E-02
DAV:   5    -0.203428613414E+03    0.14244E-04   -0.15147E-04  9552   0.580E-02    0.542E-02
DAV:   6    -0.203428595258E+03    0.18155E-04   -0.73151E-05  8600   0.430E-02    0.367E-02
DAV:   7    -0.203428584913E+03    0.10346E-04   -0.45392E-05  7576   0.369E-02    0.190E-02
DAV:   8    -0.203428583007E+03    0.19058E-05   -0.11047E-05  6104   0.179E-02
 155 F= -.20342858E+03 E0= -.20084466E+03  d E =-.111856E-02
quench:  g(F)=  0.000E+00 g(S)=  0.000E+00 dE (1.order)= 0.000E+00
 bond charge predicted
       N       E                     dE             d eps       ncg     rms          rms(c)
DAV:   1    -0.203429321491E+03   -0.73658E-03   -0.14913E-01 11136   0.725E-01    0.816E-02
DAV:   2    -0.203429689160E+03   -0.36767E-03   -0.41300E-03 11248   0.102E-01    0.608E-02
DAV:   3    -0.203429722426E+03   -0.33267E-04   -0.22860E-04 12664   0.668E-02    0.938E-02
DAV:   4    -0.203429672620E+03    0.49806E-04   -0.24343E-04 11376   0.741E-02    0.586E-02
DAV:   5    -0.203429667652E+03    0.49682E-05   -0.13645E-04 11232   0.608E-02    0.571E-02
DAV:   6    -0.203429641082E+03    0.26570E-04   -0.70679E-05  8400   0.488E-02    0.309E-02
DAV:   7    -0.203429634934E+03    0.61483E-05   -0.28860E-05  7176   0.308E-02
 156 F= -.20342963E+03 E0= -.20084557E+03  d E =-.105193E-02
quench:  g(F)=  0.000E+00 g(S)=  0.000E+00 dE (1.order)= 0.000E+00
 bond charge predicted
       N       E                     dE             d eps       ncg     rms          rms(c)
DAV:   1    -0.203430422455E+03   -0.78137E-03   -0.11396E-01 11136   0.624E-01    0.745E-02
DAV:   2    -0.203430757924E+03   -0.33547E-03   -0.36575E-03 11272   0.103E-01    0.719E-02
DAV:   3    -0.203430734835E+03    0.23089E-04   -0.16919E-04 12240   0.631E-02    0.630E-02
DAV:   4    -0.203430714622E+03    0.20212E-04   -0.12558E-04 11152   0.525E-02    0.464E-02
DAV:   5    -0.203430784695E+03   -0.70073E-04   -0.21228E-04  9384   0.701E-02    0.996E-02
DAV:   6    -0.203430700452E+03    0.84243E-04   -0.16681E-04  7992   0.633E-02    0.337E-02
DAV:   7    -0.203430693327E+03    0.71253E-05   -0.33492E-05  6912   0.345E-02
 157 F= -.20343069E+03 E0= -.20084686E+03  d E =-.105839E-02
quench:  g(F)=  0.000E+00 g(S)=  0.000E+00 dE (1.order)= 0.000E+00
 bond charge predicted
       N       E                     dE             d eps       ncg     rms          rms(c)
DAV:   1    -0.203431451856E+03   -0.75140E-03   -0.13215E-01 11136   0.685E-01    0.765E-02
DAV:   2    -0.203431792229E+03   -0.34037E-03   -0.36371E-03 11224   0.108E-01    0.725E-02
DAV:   3    -0.203431801622E+03   -0.93935E-05   -0.26106E-04 12096   0.821E-02    0.848E-02
DAV:   4    -0.203431788166E+03    0.13456E-04   -0.23693E-04 11288   0.737E-02    0.781E-02
DAV:   5    -0.203431745606E+03    0.42561E-04   -0.15274E-04  9824   0.617E-02    0.447E-02
DAV:   6    -0.203431741659E+03    0.39471E-05   -0.71155E-05  9040   0.474E-02
 158 F= -.20343174E+03 E0= -.20084793E+03  d E =-.104833E-02
quench:  g(F)=  0.000E+00 g(S)=  0.000E+00 dE (1.order)= 0.000E+00
 bond charge predicted
       N       E                     dE             d eps       ncg     rms          rms(c)
DAV:   1    -0.203432549879E+03   -0.80427E-03   -0.12976E-01 11136   0.676E-01    0.758E-02
DAV:   2    -0.203432943452E+03   -0.39357E-03   -0.38930E-03 11248   0.122E-01    0.952E-02
DAV:   3    -0.203432897503E+03    0.45950E-04   -0.27021E-04 11888   0.879E-02    0.725E-02
DAV:   4    -0.203432890054E+03    0.74485E-05   -0.16118E-04 11008   0.607E-02    0.720E-02
DAV:   5    -0.203432864358E+03    0.25696E-04   -0.14250E-04  8816   0.574E-02    0.486E-02
DAV:   6    -0.203432866297E+03   -0.19387E-05   -0.89317E-05  9576   0.505E-02
 159 F= -.20343287E+03 E0= -.20084909E+03  d E =-.112464E-02
quench:  g(F)=  0.000E+00 g(S)=  0.000E+00 dE (1.order)= 0.000E+00
 bond charge predicted
       N       E                     dE             d eps       ncg     rms          rms(c)
DAV:   1    -0.203433587889E+03   -0.72353E-03   -0.16126E-01 11136   0.757E-01    0.842E-02
DAV:   2    -0.203434020891E+03   -0.43300E-03   -0.44384E-03 11160   0.126E-01    0.913E-02
DAV:   3    -0.203434002718E+03    0.18174E-04   -0.33263E-04 11984   0.955E-02    0.855E-02
DAV:   4    -0.203434001079E+03    0.16385E-05   -0.24729E-04 11488   0.768E-02    0.885E-02
DAV:   5    -0.203433947824E+03    0.53255E-04   -0.20133E-04 10000   0.688E-02    0.498E-02
DAV:   6    -0.203433944730E+03    0.30945E-05   -0.90069E-05 10448   0.518E-02
 160 F= -.20343394E+03 E0= -.20085030E+03  d E =-.107843E-02
quench:  g(F)=  0.000E+00 g(S)=  0.000E+00 dE (1.order)= 0.000E+00
 bond charge predicted
       N       E                     dE             d eps       ncg     rms          rms(c)
DAV:   1    -0.203434703409E+03   -0.75559E-03   -0.12308E-01 11136   0.649E-01    0.785E-02
DAV:   2    -0.203435102029E+03   -0.39862E-03   -0.39801E-03 11248   0.127E-01    0.989E-02
DAV:   3    -0.203435048176E+03    0.53853E-04   -0.27902E-04 11936   0.891E-02    0.734E-02
DAV:   4    -0.203435035315E+03    0.12861E-04   -0.15818E-04 11312   0.601E-02    0.691E-02
DAV:   5    -0.203435023803E+03    0.11512E-04   -0.16088E-04  9368   0.607E-02    0.590E-02
DAV:   6    -0.203435011831E+03    0.11972E-04   -0.10980E-04 10536   0.552E-02    0.491E-02
DAV:   7    -0.203434991010E+03    0.20820E-04   -0.57255E-05  7912   0.430E-02    0.224E-02
DAV:   8    -0.203434987707E+03    0.33031E-05   -0.18785E-05  6664   0.241E-02
 161 F= -.20343499E+03 E0= -.20085140E+03  d E =-.104298E-02
quench:  g(F)=  0.000E+00 g(S)=  0.000E+00 dE (1.order)= 0.000E+00
 bond charge predicted
       N       E                     dE             d eps       ncg     rms          rms(c)
DAV:   1    -0.203435705517E+03   -0.71451E-03   -0.12761E-01 11136   0.669E-01    0.763E-02
DAV:   2    -0.203436027351E+03   -0.32183E-03   -0.35855E-03 11264   0.971E-02    0.600E-02
DAV:   3    -0.203436058356E+03   -0.31006E-04   -0.22002E-04 12192   0.697E-02    0.903E-02
DAV:   4    -0.203436017029E+03    0.41327E-04   -0.22649E-04 11184   0.717E-02    0.621E-02
DAV:   5    -0.203436000826E+03    0.16203E-04   -0.12679E-04 10824   0.585E-02    0.495E-02
DAV:   6    -0.203435987567E+03    0.13259E-04   -0.61869E-05  8240   0.458E-02    0.376E-02
DAV:   7    -0.203435974737E+03    0.12830E-04   -0.30966E-05  7296   0.331E-02    0.145E-02
DAV:   8    -0.203435973947E+03    0.78987E-06   -0.81664E-06  5976   0.150E-02
 162 F= -.20343597E+03 E0= -.20085228E+03  d E =-.986240E-03
quench:  g(F)=  0.000E+00 g(S)=  0.000E+00 dE (1.order)= 0.000E+00
 bond charge predicted
       N       E                     dE             d eps       ncg     rms          rms(c)
DAV:   1    -0.203436738304E+03   -0.76357E-03   -0.11105E-01 11136   0.621E-01    0.707E-02
DAV:   2    -0.203437040110E+03   -0.30181E-03   -0.33496E-03 11280   0.929E-02    0.592E-02
DAV:   3    -0.203437016758E+03    0.23353E-04   -0.93956E-05 12400   0.420E-02    0.486E-02
DAV:   4    -0.203437039259E+03   -0.22501E-04   -0.14016E-04 11432   0.567E-02    0.688E-02
DAV:   5    -0.203437042370E+03   -0.31117E-05   -0.18912E-04  9008   0.666E-02    0.715E-02
DAV:   6    -0.203436998486E+03    0.43884E-04   -0.91752E-05  7696   0.512E-02    0.295E-02
DAV:   7    -0.203436993244E+03    0.52426E-05   -0.25840E-05  7032   0.302E-02
 163 F= -.20343699E+03 E0= -.20085350E+03  d E =-.101930E-02
quench:  g(F)=  0.000E+00 g(S)=  0.000E+00 dE (1.order)= 0.000E+00
 bond charge predicted
       N       E                     dE             d eps       ncg     rms          rms(c)
DAV:   1    -0.203437705390E+03   -0.70690E-03   -0.14285E-01 11136   0.712E-01    0.785E-02
DAV:   2    -0.203438060139E+03   -0.35475E-03   -0.38889E-03 11240   0.104E-01    0.660E-02
DAV:   3    -0.203438106077E+03   -0.45937E-04   -0.29073E-04 12224   0.812E-02    0.101E-01
DAV:   4    -0.203438050190E+03    0.55887E-04   -0.26719E-04 11352   0.779E-02    0.671E-02
DAV:   5    -0.203438019807E+03    0.30383E-04   -0.13989E-04 10944   0.585E-02    0.419E-02
DAV:   6    -0.203438007353E+03    0.12454E-04   -0.52711E-05  7624   0.386E-02    0.277E-02
DAV:   7    -0.203438002002E+03    0.53507E-05   -0.26725E-05  7152   0.297E-02
 164 F= -.20343800E+03 E0= -.20085439E+03  d E =-.100876E-02
quench:  g(F)=  0.000E+00 g(S)=  0.000E+00 dE (1.order)= 0.000E+00
 bond charge predicted
       N       E                     dE             d eps       ncg     rms          rms(c)
DAV:   1    -0.203438747299E+03   -0.73995E-03   -0.11976E-01 11136   0.641E-01    0.763E-02
DAV:   2    -0.203439112279E+03   -0.36498E-03   -0.38040E-03 11288   0.112E-01    0.838E-02
DAV:   3    -0.203439084827E+03    0.27452E-04   -0.20478E-04 11968   0.782E-02    0.735E-02
DAV:   4    -0.203439043476E+03    0.41350E-04   -0.10538E-04 11160   0.507E-02    0.395E-02
DAV:   5    -0.203439112352E+03   -0.68875E-04   -0.18895E-04 11040   0.668E-02    0.962E-02
DAV:   6    -0.203439043460E+03    0.68891E-04   -0.19206E-04  8256   0.669E-02    0.439E-02
DAV:   7    -0.203439025736E+03    0.17724E-04   -0.44632E-05  7120   0.382E-02    0.182E-02
DAV:   8    -0.203439025183E+03    0.55307E-06   -0.17146E-05  6280   0.212E-02
 165 F= -.20343903E+03 E0= -.20085558E+03  d E =-.102318E-02
quench:  g(F)=  0.000E+00 g(S)=  0.000E+00 dE (1.order)= 0.000E+00
 bond charge predicted
       N       E                     dE             d eps       ncg     rms          rms(c)
DAV:   1    -0.203439725118E+03   -0.69938E-03   -0.13029E-01 11136   0.676E-01    0.770E-02
DAV:   2    -0.203440050600E+03   -0.32548E-03   -0.36502E-03 11256   0.965E-02    0.587E-02
DAV:   3    -0.203440079166E+03   -0.28566E-04   -0.20779E-04 12416   0.655E-02    0.882E-02
DAV:   4    -0.203440038811E+03    0.40355E-04   -0.22304E-04 11176   0.711E-02    0.597E-02
DAV:   5    -0.203440028317E+03    0.10494E-04   -0.12729E-04 10904   0.588E-02    0.524E-02
DAV:   6    -0.203440008881E+03    0.19436E-04   -0.59916E-05  8168   0.460E-02    0.335E-02
DAV:   7    -0.203439999949E+03    0.89314E-05   -0.28807E-05  7216   0.312E-02
 166 F= -.20344000E+03 E0= -.20085644E+03  d E =-.974766E-03
quench:  g(F)=  0.000E+00 g(S)=  0.000E+00 dE (1.order)= 0.000E+00
 bond charge predicted
       N       E                     dE             d eps       ncg     rms          rms(c)
DAV:   1    -0.203440737716E+03   -0.72884E-03   -0.10766E-01 11136   0.610E-01    0.705E-02
DAV:   2    -0.203441040924E+03   -0.30321E-03   -0.33368E-03 11280   0.958E-02    0.632E-02
DAV:   3    -0.203441019681E+03    0.21243E-04   -0.12481E-04 12192   0.521E-02    0.550E-02
DAV:   4    -0.203441016820E+03    0.28609E-05   -0.12623E-04 11312   0.523E-02    0.531E-02
DAV:   5    -0.203441053854E+03   -0.37034E-04   -0.18367E-04  8152   0.652E-02    0.835E-02
DAV:   6    -0.203440990589E+03    0.63265E-04   -0.11247E-04  7576   0.531E-02    0.221E-02
DAV:   7    -0.203440990373E+03    0.21642E-06   -0.23645E-05  6840   0.287E-02
