PBE-grap                                
           1
     8.309900    0.000000    0.000000
    -4.154950    7.196585    0.000000
     0.000000    0.000000   16.523500
   Pd   C    O 
  36   1   2
Direct configuration=     1
   1.00033633  0.00102012  0.43484471
   0.11093000  0.22330000  0.16024000
   0.22217739  0.11223686  0.29696658
   0.33308090  0.00087815  0.43468410
   0.44426000  0.22330000  0.16024000
   0.55522981  0.11211504  0.29713885
   0.66659330  0.00109732  0.43400512
   0.77760000  0.22330000  0.16024000
   0.88862746  0.11210508  0.29704600
   0.99996425  0.33447605  0.43438858
   0.11093000  0.55664000  0.16024000
   0.22206372  0.44556511  0.29700600
   0.33330305  0.33498790  0.43454497
   0.44426000  0.55664000  0.16024000
   0.55518908  0.44541483  0.29720124
   0.66678234  0.33459060  0.43398562
   0.77760000  0.55664000  0.16024000
   0.88874509  0.44549025  0.29717347
   0.99965693  0.66760241  0.43412301
   0.11093000  0.88997000  0.16024000
   0.22207496  0.77885130  0.29702072
   0.33323025  0.66775104  0.43408589
   0.44426000  0.88997000  0.16024000
   0.55536323  0.77885659  0.29707782
   0.66660594  0.66781739  0.43401451
   0.77760000  0.88997000  0.16024000
   0.88867106  0.77886639  0.29705832
   0.99982000  0.00108000  0.02337000
   0.33315000  0.00108000  0.02337000
   0.66649000  0.00108000  0.02337000
   0.99982000  0.33441000  0.02337000
   0.33315000  0.33441000  0.02337000
   0.66649000  0.33441000  0.02337000
   0.99982000  0.66775000  0.02337000
   0.33315000  0.66775000  0.02337000
   0.66649000  0.66775000  0.02337000
   0.19907716  0.07433616  0.54683214
   0.20378013  0.31285112  0.54331820
   0.25397840  0.91327234  0.55839630
Direct configuration=     2
   1.00117258  0.00091777  0.43629532
   0.11093000  0.22330000  0.16024000
   0.22236807  0.11230849  0.29678868
   0.33319137  0.00075144  0.43557281
   0.44426000  0.22330000  0.16024000
   0.55494527  0.11196517  0.29721621
   0.66680029  0.00112843  0.43404298
   0.77760000  0.22330000  0.16024000
   0.88853296  0.11196082  0.29698530
   1.00022654  0.33459142  0.43508381
   0.11093000  0.55664000  0.16024000
   0.22207717  0.44560741  0.29686473
   0.33352719  0.33596507  0.43553468
   0.44426000  0.55664000  0.16024000
   0.55485656  0.44523468  0.29737429
   0.66726726  0.33488554  0.43400127
   0.77760000  0.55664000  0.16024000
   0.88881329  0.44542482  0.29728402
   0.99930889  0.66726012  0.43429739
   0.11093000  0.88997000  0.16024000
   0.22213809  0.77885816  0.29690430
   0.33337395  0.66771929  0.43423615
   0.44426000  0.88997000  0.16024000
   0.55533244  0.77885088  0.29703190
   0.66682364  0.66795651  0.43407964
   0.77760000  0.88997000  0.16024000
   0.88863973  0.77892379  0.29700401
   0.99982000  0.00108000  0.02337000
   0.33315000  0.00108000  0.02337000
   0.66649000  0.00108000  0.02337000
   0.99982000  0.33441000  0.02337000
   0.33315000  0.33441000  0.02337000
   0.66649000  0.33441000  0.02337000
   0.99982000  0.66775000  0.02337000
   0.33315000  0.66775000  0.02337000
   0.66649000  0.66775000  0.02337000
   0.19892926  0.06368859  0.54681580
   0.20471144  0.31174180  0.54397085
   0.25156657  0.92442489  0.55952934
Direct configuration=     3
   1.00176005  0.00076551  0.43760626
   0.11093000  0.22330000  0.16024000
   0.22247155  0.11237803  0.29671968
   0.33396496  0.00106825  0.43558403
   0.44426000  0.22330000  0.16024000
   0.55463489  0.11178329  0.29732274
   0.66705491  0.00115193  0.43407323
   0.77760000  0.22330000  0.16024000
   0.88852461  0.11182785  0.29701172
   1.00055305  0.33474359  0.43579904
   0.11093000  0.55664000  0.16024000
   0.22204589  0.44558761  0.29678291
   0.33365278  0.33690588  0.43660881
   0.44426000  0.55664000  0.16024000
   0.55452941  0.44506058  0.29757454
   0.66771734  0.33515379  0.43402884
   0.77760000  0.55664000  0.16024000
   0.88888773  0.44531358  0.29739226
   0.99880803  0.66671468  0.43431758
   0.11093000  0.88997000  0.16024000
   0.22220477  0.77888935  0.29684403
   0.33351878  0.66765424  0.43434214
   0.44426000  0.88997000  0.16024000
   0.55529473  0.77884629  0.29700087
   0.66707727  0.66813527  0.43415159
   0.77760000  0.88997000  0.16024000
   0.88867011  0.77906599  0.29701195
   0.99982000  0.00108000  0.02337000
   0.33315000  0.00108000  0.02337000
   0.66649000  0.00108000  0.02337000
   0.99982000  0.33441000  0.02337000
   0.33315000  0.33441000  0.02337000
   0.66649000  0.33441000  0.02337000
   0.99982000  0.66775000  0.02337000
   0.33315000  0.66775000  0.02337000
   0.66649000  0.66775000  0.02337000
   0.20001855  0.04816604  0.54705427
   0.20576179  0.31173908  0.54396605
   0.24750677  0.93918905  0.56096344
Direct configuration=     4
   1.00177043  0.00069461  0.43800379
   0.11093000  0.22330000  0.16024000
   0.22246316  0.11241990  0.29672826
   0.33479000  0.00140151  0.43492630
   0.44426000  0.22330000  0.16024000
   0.55452789  0.11171198  0.29735726
   0.66716711  0.00114669  0.43408973
   0.77760000  0.22330000  0.16024000
   0.88855889  0.11177720  0.29705867
   1.00075825  0.33483494  0.43614725
   0.11093000  0.55664000  0.16024000
   0.22201599  0.44555017  0.29677170
   0.33367150  0.33728917  0.43713373
   0.44426000  0.55664000  0.16024000
   0.55439455  0.44498966  0.29767217
   0.66788443  0.33525508  0.43405282
   0.77760000  0.55664000  0.16024000
   0.88891761  0.44523265  0.29743438
   0.99853890  0.66638810  0.43424765
   0.11093000  0.88997000  0.16024000
   0.22222420  0.77889322  0.29683113
   0.33358355  0.66765360  0.43438279
   0.44426000  0.88997000  0.16024000
   0.55527450  0.77884275  0.29699275
   0.66720259  0.66822771  0.43418911
   0.77760000  0.88997000  0.16024000
   0.88870752  0.77916034  0.29704073
   0.99982000  0.00108000  0.02337000
   0.33315000  0.00108000  0.02337000
   0.66649000  0.00108000  0.02337000
   0.99982000  0.33441000  0.02337000
   0.33315000  0.33441000  0.02337000
   0.66649000  0.33441000  0.02337000
   0.99982000  0.66775000  0.02337000
   0.33315000  0.66775000  0.02337000
   0.66649000  0.66775000  0.02337000
   0.19790357  0.04748586  0.54692959
   0.20612274  0.31222686  0.54382032
   0.24820135  0.93895464  0.56309561
Direct configuration=     5
   1.00192027  0.00052373  0.43880548
   0.11093000  0.22330000  0.16024000
   0.22243050  0.11251540  0.29675691
   0.33597630  0.00192146  0.43407605
   0.44426000  0.22330000  0.16024000
   0.55439823  0.11162082  0.29738566
   0.66739141  0.00114516  0.43412450
   0.77760000  0.22330000  0.16024000
   0.88863752  0.11168899  0.29716817
   1.00111808  0.33498661  0.43679004
   0.11093000  0.55664000  0.16024000
   0.22196308  0.44547310  0.29677443
   0.33380583  0.33797850  0.43805335
   0.44426000  0.55664000  0.16024000
   0.55414625  0.44485851  0.29786296
   0.66818640  0.33543508  0.43410471
   0.77760000  0.55664000  0.16024000
   0.88896941  0.44507217  0.29751369
   0.99812313  0.66587224  0.43413633
   0.11093000  0.88997000  0.16024000
   0.22223223  0.77886559  0.29679689
   0.33370296  0.66768982  0.43445990
   0.44426000  0.88997000  0.16024000
   0.55523730  0.77882836  0.29698019
   0.66743720  0.66840190  0.43426467
   0.77760000  0.88997000  0.16024000
   0.88877689  0.77933422  0.29710029
   0.99982000  0.00108000  0.02337000
   0.33315000  0.00108000  0.02337000
   0.66649000  0.00108000  0.02337000
   0.99982000  0.33441000  0.02337000
   0.33315000  0.33441000  0.02337000
   0.66649000  0.33441000  0.02337000
   0.99982000  0.66775000  0.02337000
   0.33315000  0.66775000  0.02337000
   0.66649000  0.66775000  0.02337000
   0.19517624  0.04345474  0.54698078
   0.20679227  0.31288685  0.54368918
   0.24829754  0.94158480  0.56652034
Direct configuration=     6
   1.00228612  0.00025149  0.43990576
   0.11093000  0.22330000  0.16024000
   0.22233267  0.11267815  0.29683548
   0.33721006  0.00254726  0.43323892
   0.44426000  0.22330000  0.16024000
   0.55437950  0.11158195  0.29734630
   0.66770794  0.00115068  0.43418048
   0.77760000  0.22330000  0.16024000
   0.88878573  0.11158227  0.29737826
   1.00159341  0.33516009  0.43765223
   0.11093000  0.55664000  0.16024000
   0.22188403  0.44533461  0.29683905
   0.33421154  0.33886624  0.43916123
   0.44426000  0.55664000  0.16024000
   0.55382556  0.44469228  0.29813243
   0.66854387  0.33563587  0.43419159
   0.77760000  0.55664000  0.16024000
   0.88902040  0.44482472  0.29762172
   0.99773695  0.66533365  0.43400115
   0.11093000  0.88997000  0.16024000
   0.22218342  0.77876463  0.29674404
   0.33386860  0.66785052  0.43456439
   0.44426000  0.88997000  0.16024000
   0.55518811  0.77879797  0.29697185
   0.66775087  0.66864156  0.43437433
   0.77760000  0.88997000  0.16024000
   0.88887085  0.77956905  0.29719913
   0.99982000  0.00108000  0.02337000
   0.33315000  0.00108000  0.02337000
   0.66649000  0.00108000  0.02337000
   0.99982000  0.33441000  0.02337000
   0.33315000  0.33441000  0.02337000
   0.66649000  0.33441000  0.02337000
   0.99982000  0.66775000  0.02337000
   0.33315000  0.66775000  0.02337000
   0.66649000  0.66775000  0.02337000
   0.19008368  0.04071522  0.54658349
   0.20755013  0.31333387  0.54373097
   0.24980246  0.94285652  0.57176486
Direct configuration=     7
   1.00265941  0.00003358  0.44059549
   0.11093000  0.22330000  0.16024000
   0.22226564  0.11276874  0.29690109
   0.33745110  0.00276928  0.43322701
   0.44426000  0.22330000  0.16024000
   0.55446645  0.11161082  0.29728234
   0.66788871  0.00117156  0.43421575
   0.77760000  0.22330000  0.16024000
   0.88888969  0.11153726  0.29753395
   1.00181442  0.33523027  0.43809202
   0.11093000  0.55664000  0.16024000
   0.22183982  0.44524890  0.29691462
   0.33460188  0.33930751  0.43963968
   0.44426000  0.55664000  0.16024000
   0.55367164  0.44460951  0.29828218
   0.66870910  0.33570911  0.43424987
   0.77760000  0.55664000  0.16024000
   0.88903800  0.44468383  0.29768314
   0.99767320  0.66518688  0.43396652
   0.11093000  0.88997000  0.16024000
   0.22213344  0.77868960  0.29671283
   0.33396279  0.66801516  0.43461993
   0.44426000  0.88997000  0.16024000
   0.55516390  0.77877675  0.29697245
   0.66791663  0.66877441  0.43444329
   0.77760000  0.88997000  0.16024000
   0.88891471  0.77968139  0.29725891
   0.99982000  0.00108000  0.02337000
   0.33315000  0.00108000  0.02337000
   0.66649000  0.00108000  0.02337000
   0.99982000  0.33441000  0.02337000
   0.33315000  0.33441000  0.02337000
   0.66649000  0.33441000  0.02337000
   0.99982000  0.66775000  0.02337000
   0.33315000  0.66775000  0.02337000
   0.66649000  0.66775000  0.02337000
   0.19010977  0.03518006  0.54736221
   0.20788429  0.31272303  0.54405365
   0.24782738  0.94849944  0.57335550
Direct configuration=     8
   1.00284861 -0.00005694  0.44096557
   0.11093000  0.22330000  0.16024000
   0.22222904  0.11282388  0.29694742
   0.33774032  0.00292464  0.43301894
   0.44426000  0.22330000  0.16024000
   0.55450705  0.11161961  0.29725258
   0.66799465  0.00118450  0.43423395
   0.77760000  0.22330000  0.16024000
   0.88896020  0.11150823  0.29763645
   1.00196135  0.33526896  0.43836008
   0.11093000  0.55664000  0.16024000
   0.22181485  0.44519704  0.29696602
   0.33475134  0.33956002  0.43997253
   0.44426000  0.55664000  0.16024000
   0.55357909  0.44455993  0.29837469
   0.66879430  0.33574466  0.43428289
   0.77760000  0.55664000  0.16024000
   0.88904872  0.44460225  0.29771904
   0.99762783  0.66507571  0.43393209
   0.11093000  0.88997000  0.16024000
   0.22210712  0.77865135  0.29669786
   0.33401951  0.66811967  0.43465109
   0.44426000  0.88997000  0.16024000
   0.55514879  0.77876421  0.29697498
   0.66801134  0.66884843  0.43448056
   0.77760000  0.88997000  0.16024000
   0.88893883  0.77974872  0.29729869
   0.99982000  0.00108000  0.02337000
   0.33315000  0.00108000  0.02337000
   0.66649000  0.00108000  0.02337000
   0.99982000  0.33441000  0.02337000
   0.33315000  0.33441000  0.02337000
   0.66649000  0.33441000  0.02337000
   0.99982000  0.66775000  0.02337000
   0.33315000  0.66775000  0.02337000
   0.66649000  0.66775000  0.02337000
   0.18630836  0.03747699  0.54573597
   0.20812709  0.31284496  0.54372497
   0.25072965  0.94546507  0.57546238
Direct configuration=     9
   1.00312116 -0.00016416  0.44140204
   0.11093000  0.22330000  0.16024000
   0.22222826  0.11292748  0.29705286
   0.33794874  0.00293473  0.43288458
   0.44426000  0.22330000  0.16024000
   0.55455924  0.11164950  0.29721423
   0.66816284  0.00122303  0.43425817
   0.77760000  0.22330000  0.16024000
   0.88904166  0.11148197  0.29774931
   1.00198203  0.33525107  0.43856258
   0.11093000  0.55664000  0.16024000
   0.22180433  0.44511905  0.29707983
   0.33443477  0.33956252  0.44059462
   0.44426000  0.55664000  0.16024000
   0.55340051  0.44448553  0.29851917
   0.66877037  0.33577233  0.43432377
   0.77760000  0.55664000  0.16024000
   0.88904378  0.44453905  0.29774337
   0.99760580  0.66500784  0.43392203
   0.11093000  0.88997000  0.16024000
   0.22206505  0.77859982  0.29667180
   0.33404496  0.66814777  0.43469161
   0.44426000  0.88997000  0.16024000
   0.55513256  0.77874702  0.29698091
   0.66802490  0.66885661  0.43452670
   0.77760000  0.88997000  0.16024000
   0.88895615  0.77981789  0.29734937
   0.99982000  0.00108000  0.02337000
   0.33315000  0.00108000  0.02337000
   0.66649000  0.00108000  0.02337000
   0.99982000  0.33441000  0.02337000
   0.33315000  0.33441000  0.02337000
   0.66649000  0.33441000  0.02337000
   0.99982000  0.66775000  0.02337000
   0.33315000  0.66775000  0.02337000
   0.66649000  0.66775000  0.02337000
   0.18732742  0.03468863  0.54741247
   0.20930650  0.31154835  0.54532788
   0.25154330  0.94716642  0.57500354
Direct configuration=    10
   1.00349378 -0.00039911  0.44209320
   0.11093000  0.22330000  0.16024000
   0.22216953  0.11304499  0.29720370
   0.33824109  0.00306336  0.43271566
   0.44426000  0.22330000  0.16024000
   0.55467486  0.11169258  0.29714484
   0.66839296  0.00126739  0.43431722
   0.77760000  0.22330000  0.16024000
   0.88919969  0.11144556  0.29795860
   1.00205401  0.33525227  0.43892821
   0.11093000  0.55664000  0.16024000
   0.22177406  0.44500287  0.29724702
   0.33452168  0.33983720  0.44129317
   0.44426000  0.55664000  0.16024000
   0.55320047  0.44439443  0.29871584
   0.66882565  0.33579968  0.43441230
   0.77760000  0.55664000  0.16024000
   0.88904380  0.44441493  0.29779355
   0.99760787  0.66490006  0.43390695
   0.11093000  0.88997000  0.16024000
   0.22200085  0.77852361  0.29664142
   0.33412107  0.66831984  0.43475631
   0.44426000  0.88997000  0.16024000
   0.55510779  0.77871982  0.29699209
   0.66812797  0.66894779  0.43462388
   0.77760000  0.88997000  0.16024000
   0.88899365  0.77992728  0.29743873
   0.99982000  0.00108000  0.02337000
   0.33315000  0.00108000  0.02337000
   0.66649000  0.00108000  0.02337000
   0.99982000  0.33441000  0.02337000
   0.33315000  0.33441000  0.02337000
   0.66649000  0.33441000  0.02337000
   0.99982000  0.66775000  0.02337000
   0.33315000  0.66775000  0.02337000
   0.66649000  0.66775000  0.02337000
   0.18647046  0.03410722  0.54825944
   0.21033947  0.30808296  0.54667235
   0.25237210  0.94940521  0.57688187
Direct configuration=    11
   1.00413951 -0.00072185  0.44318074
   0.11093000  0.22330000  0.16024000
   0.22209955  0.11322480  0.29745704
   0.33869135  0.00315730  0.43237016
   0.44426000  0.22330000  0.16024000
   0.55485764  0.11175965  0.29704493
   0.66878227  0.00135625  0.43439708
   0.77760000  0.22330000  0.16024000
   0.88943610  0.11138312  0.29827365
   1.00199794  0.33520260  0.43933937
   0.11093000  0.55664000  0.16024000
   0.22174870  0.44483327  0.29754336
   0.33423560  0.34004674  0.44256241
   0.44426000  0.55664000  0.16024000
   0.55284190  0.44425754  0.29904466
   0.66882079  0.33582836  0.43453841
   0.77760000  0.55664000  0.16024000
   0.88902403  0.44424948  0.29785508
   0.99763270  0.66475078  0.43389011
   0.11093000  0.88997000  0.16024000
   0.22190049  0.77840459  0.29658511
   0.33419947  0.66851294  0.43483926
   0.44426000  0.88997000  0.16024000
   0.55507775  0.77868609  0.29700993
   0.66820488  0.66901926  0.43476333
   0.77760000  0.88997000  0.16024000
   0.88903480  0.78007556  0.29758301
   0.99982000  0.00108000  0.02337000
   0.33315000  0.00108000  0.02337000
   0.66649000  0.00108000  0.02337000
   0.99982000  0.33441000  0.02337000
   0.33315000  0.33441000  0.02337000
   0.66649000  0.33441000  0.02337000
   0.99982000  0.66775000  0.02337000
   0.33315000  0.66775000  0.02337000
   0.66649000  0.66775000  0.02337000
   0.18501668  0.03234065  0.54951997
   0.21279658  0.30444008  0.54914409
   0.25567802  0.95076922  0.57857422
Direct configuration=    12
   1.00482236 -0.00110551  0.44431783
   0.11093000  0.22330000  0.16024000
   0.22201153  0.11337057  0.29772820
   0.33890168  0.00317409  0.43226036
   0.44426000  0.22330000  0.16024000
   0.55509399  0.11183610  0.29693676
   0.66912643  0.00142670  0.43449135
   0.77760000  0.22330000  0.16024000
   0.88969001  0.11131980  0.29860213
   1.00175476  0.33509506  0.43958540
   0.11093000  0.55664000  0.16024000
   0.22173521  0.44467951  0.29787416
   0.33404947  0.34018731  0.44377422
   0.44426000  0.55664000  0.16024000
   0.55252580  0.44415584  0.29936164
   0.66878328  0.33581254  0.43468783
   0.77760000  0.55664000  0.16024000
   0.88898578  0.44410966  0.29789844
   0.99775729  0.66467083  0.43391676
   0.11093000  0.88997000  0.16024000
   0.22180296  0.77829753  0.29653538
   0.33427140  0.66875312  0.43491214
   0.44426000  0.88997000  0.16024000
   0.55506224  0.77866071  0.29703314
   0.66826988  0.66909905  0.43493643
   0.77760000  0.88997000  0.16024000
   0.88906456  0.78019119  0.29774127
   0.99982000  0.00108000  0.02337000
   0.33315000  0.00108000  0.02337000
   0.66649000  0.00108000  0.02337000
   0.99982000  0.33441000  0.02337000
   0.33315000  0.33441000  0.02337000
   0.66649000  0.33441000  0.02337000
   0.99982000  0.66775000  0.02337000
   0.33315000  0.66775000  0.02337000
   0.66649000  0.66775000  0.02337000
   0.18563550  0.03126121  0.55181422
   0.21553624  0.29833960  0.55222856
   0.25652793  0.95438838  0.58030464
Direct configuration=    13
   1.00529334 -0.00131070  0.44508898
   0.11093000  0.22330000  0.16024000
   0.22195196  0.11342826  0.29787555
   0.33909704  0.00323742  0.43211931
   0.44426000  0.22330000  0.16024000
   0.55522540  0.11186931  0.29688428
   0.66932711  0.00146079  0.43453799
   0.77760000  0.22330000  0.16024000
   0.88984850  0.11127419  0.29880631
   1.00158618  0.33502841  0.43968833
   0.11093000  0.55664000  0.16024000
   0.22173205  0.44460099  0.29806701
   0.33394515  0.34028192  0.44455663
   0.44426000  0.55664000  0.16024000
   0.55234461  0.44409505  0.29954527
   0.66879371  0.33580954  0.43476522
   0.77760000  0.55664000  0.16024000
   0.88895822  0.44403471  0.29791992
   0.99782684  0.66459265  0.43392028
   0.11093000  0.88997000  0.16024000
   0.22176013  0.77824978  0.29650741
   0.33431136  0.66890420  0.43494344
   0.44426000  0.88997000  0.16024000
   0.55505742  0.77865097  0.29704637
   0.66833753  0.66917305  0.43503543
   0.77760000  0.88997000  0.16024000
   0.88907362  0.78025046  0.29784139
   0.99982000  0.00108000  0.02337000
   0.33315000  0.00108000  0.02337000
   0.66649000  0.00108000  0.02337000
   0.99982000  0.33441000  0.02337000
   0.33315000  0.33441000  0.02337000
   0.66649000  0.33441000  0.02337000
   0.99982000  0.66775000  0.02337000
   0.33315000  0.66775000  0.02337000
   0.66649000  0.66775000  0.02337000
   0.18215311  0.03277924  0.55078903
   0.21733843  0.29596883  0.55304746
   0.26009335  0.95336278  0.58232831
Direct configuration=    14
   1.00552713 -0.00146122  0.44547425
   0.11093000  0.22330000  0.16024000
   0.22193969  0.11346710  0.29797546
   0.33910557  0.00317384  0.43212602
   0.44426000  0.22330000  0.16024000
   0.55530743  0.11190134  0.29685109
   0.66944980  0.00148528  0.43456887
   0.77760000  0.22330000  0.16024000
   0.88992997  0.11125409  0.29890620
   1.00140284  0.33494830  0.43965539
   0.11093000  0.55664000  0.16024000
   0.22174534  0.44455472  0.29819734
   0.33374223  0.34022054  0.44497781
   0.44426000  0.55664000  0.16024000
   0.55220912  0.44405411  0.29965863
   0.66872397  0.33579670  0.43481177
   0.77760000  0.55664000  0.16024000
   0.88892942  0.44402434  0.29791498
   0.99787725  0.66458549  0.43394471
   0.11093000  0.88997000  0.16024000
   0.22173109  0.77821885  0.29648748
   0.33430157  0.66891874  0.43496274
   0.44426000  0.88997000  0.16024000
   0.55505761  0.77864693  0.29705517
   0.66831180  0.66916463  0.43509509
   0.77760000  0.88997000  0.16024000
   0.88906707  0.78026890  0.29789693
   0.99982000  0.00108000  0.02337000
   0.33315000  0.00108000  0.02337000
   0.66649000  0.00108000  0.02337000
   0.99982000  0.33441000  0.02337000
   0.33315000  0.33441000  0.02337000
   0.66649000  0.33441000  0.02337000
   0.99982000  0.66775000  0.02337000
   0.33315000  0.66775000  0.02337000
   0.66649000  0.66775000  0.02337000
   0.18441086  0.03164259  0.55240336
   0.21866782  0.29328046  0.55457493
   0.25917328  0.95566336  0.58181063
Direct configuration=    15
   1.00604983 -0.00172954  0.44635139
   0.11093000  0.22330000  0.16024000
   0.22188673  0.11350395  0.29814581
   0.33923354  0.00317054  0.43205327
   0.44426000  0.22330000  0.16024000
   0.55546025  0.11194520  0.29679614
   0.66966131  0.00151841  0.43462618
   0.77760000  0.22330000  0.16024000
   0.89010600  0.11120805  0.29912107
   1.00109475  0.33482704  0.43963019
   0.11093000  0.55664000  0.16024000
   0.22176115  0.44447393  0.29843157
   0.33356600  0.34022585  0.44580476
   0.44426000  0.55664000  0.16024000
   0.55198708  0.44398561  0.29986084
   0.66868071  0.33577556  0.43490138
   0.77760000  0.55664000  0.16024000
   0.88888310  0.44398241  0.29791533
   0.99796443  0.66452303  0.43397182
   0.11093000  0.88997000  0.16024000
   0.22168981  0.77817063  0.29645596
   0.33431481  0.66902742  0.43499384
   0.44426000  0.88997000  0.16024000
   0.55506140  0.77864206  0.29707163
   0.66834703  0.66922320  0.43521548
   0.77760000  0.88997000  0.16024000
   0.88906437  0.78031108  0.29801536
   0.99982000  0.00108000  0.02337000
   0.33315000  0.00108000  0.02337000
   0.66649000  0.00108000  0.02337000
   0.99982000  0.33441000  0.02337000
   0.33315000  0.33441000  0.02337000
   0.66649000  0.33441000  0.02337000
   0.99982000  0.66775000  0.02337000
   0.33315000  0.66775000  0.02337000
   0.66649000  0.66775000  0.02337000
   0.18375254  0.03197974  0.55266114
   0.22101655  0.28910948  0.55618780
   0.26056863  0.95729442  0.58284101
Direct configuration=    16
   1.00666121 -0.00211200  0.44746649
   0.11093000  0.22330000  0.16024000
   0.22182300  0.11350356  0.29834742
   0.33931732  0.00316021  0.43208875
   0.44426000  0.22330000  0.16024000
   0.55564944  0.11199790  0.29674084
   0.66988992  0.00153881  0.43470759
   0.77760000  0.22330000  0.16024000
   0.89031212  0.11115189  0.29938003
   1.00066779  0.33467760  0.43950249
   0.11093000  0.55664000  0.16024000
   0.22179556  0.44438823  0.29870812
   0.33353187  0.34025078  0.44663788
   0.44426000  0.55664000  0.16024000
   0.55175233  0.44391782  0.30009318
   0.66864123  0.33574176  0.43500949
   0.77760000  0.55664000  0.16024000
   0.88881653  0.44395210  0.29790031
   0.99809224  0.66446771  0.43402584
   0.11093000  0.88997000  0.16024000
   0.22165197  0.77812811  0.29642602
   0.33433025  0.66916776  0.43502563
   0.44426000  0.88997000  0.16024000
   0.55507919  0.77864240  0.29709422
   0.66839565  0.66930878  0.43536739
   0.77760000  0.88997000  0.16024000
   0.88905504  0.78034384  0.29816516
   0.99982000  0.00108000  0.02337000
   0.33315000  0.00108000  0.02337000
   0.66649000  0.00108000  0.02337000
   0.99982000  0.33441000  0.02337000
   0.33315000  0.33441000  0.02337000
   0.66649000  0.33441000  0.02337000
   0.99982000  0.66775000  0.02337000
   0.33315000  0.66775000  0.02337000
   0.66649000  0.66775000  0.02337000
   0.18450690  0.03322114  0.55321712
   0.22370803  0.28228084  0.55826187
   0.26032869  0.96063797  0.58382979
Direct configuration=    17
   1.00729662 -0.00248951  0.44865669
   0.11093000  0.22330000  0.16024000
   0.22174038  0.11343533  0.29851477
   0.33943490  0.00321858  0.43214770
   0.44426000  0.22330000  0.16024000
   0.55581333  0.11202640  0.29670912
   0.67008244  0.00153469  0.43479035
   0.77760000  0.22330000  0.16024000
   0.89050524  0.11107484  0.29962753
   1.00030225  0.33457812  0.43933994
   0.11093000  0.55664000  0.16024000
   0.22183343  0.44432827  0.29894123
   0.33374598  0.34036304  0.44722342
   0.44426000  0.55664000  0.16024000
   0.55157244  0.44386712  0.30029306
   0.66867579  0.33571376  0.43511263
   0.77760000  0.55664000  0.16024000
   0.88876297  0.44392707  0.29787950
   0.99821407  0.66439973  0.43407692
   0.11093000  0.88997000  0.16024000
   0.22163825  0.77811024  0.29640960
   0.33436895  0.66933953  0.43504654
   0.44426000  0.88997000  0.16024000
   0.55510814  0.77864763  0.29711412
   0.66852728  0.66945907  0.43552260
   0.77760000  0.88997000  0.16024000
   0.88905566  0.78037517  0.29831542
   0.99982000  0.00108000  0.02337000
   0.33315000  0.00108000  0.02337000
   0.66649000  0.00108000  0.02337000
   0.99982000  0.33441000  0.02337000
   0.33315000  0.33441000  0.02337000
   0.66649000  0.33441000  0.02337000
   0.99982000  0.66775000  0.02337000
   0.33315000  0.66775000  0.02337000
   0.66649000  0.66775000  0.02337000
   0.18247782  0.03761009  0.55157053
   0.22567926  0.27502206  0.55942682
   0.26173013  0.96205516  0.58599379
Direct configuration=    18
   1.00753519 -0.00271959  0.44916966
   0.11093000  0.22330000  0.16024000
   0.22171089  0.11338288  0.29857670
   0.33936986  0.00320707  0.43236727
   0.44426000  0.22330000  0.16024000
   0.55588338  0.11203749  0.29670097
   0.67015308  0.00152726  0.43483305
   0.77760000  0.22330000  0.16024000
   0.89057982  0.11104117  0.29972300
   1.00013430  0.33453233  0.43922034
   0.11093000  0.55664000  0.16024000
   0.22186451  0.44431205  0.29903172
   0.33397461  0.34047507  0.44723421
   0.44426000  0.55664000  0.16024000
   0.55151357  0.44385489  0.30036912
   0.66870723  0.33570377  0.43515405
   0.77760000  0.55664000  0.16024000
   0.88873742  0.44393394  0.29785952
   0.99828235  0.66440326  0.43412233
   0.11093000  0.88997000  0.16024000
   0.22163851  0.77810844  0.29640744
   0.33438396  0.66939561  0.43505329
   0.44426000  0.88997000  0.16024000
   0.55513000  0.77865277  0.29712426
   0.66859131  0.66953879  0.43559300
   0.77760000  0.88997000  0.16024000
   0.88905020  0.78036902  0.29837790
   0.99982000  0.00108000  0.02337000
   0.33315000  0.00108000  0.02337000
   0.66649000  0.00108000  0.02337000
   0.99982000  0.33441000  0.02337000
   0.33315000  0.33441000  0.02337000
   0.66649000  0.33441000  0.02337000
   0.99982000  0.66775000  0.02337000
   0.33315000  0.66775000  0.02337000
   0.66649000  0.66775000  0.02337000
   0.18609690  0.03853588  0.55247306
   0.22595637  0.26975008  0.56011641
   0.25815957  0.96599170  0.58519212
Direct configuration=    19
   1.00774130 -0.00283565  0.44956335
   0.11093000  0.22330000  0.16024000
   0.22167871  0.11333382  0.29861023
   0.33941993  0.00326560  0.43242586
   0.44426000  0.22330000  0.16024000
   0.55591935  0.11203426  0.29670350
   0.67019563  0.00151799  0.43485762
   0.77760000  0.22330000  0.16024000
   0.89063201  0.11101402  0.29978505
   1.00007453  0.33453221  0.43917935
   0.11093000  0.55664000  0.16024000
   0.22187661  0.44430407  0.29907367
   0.33424037  0.34061757  0.44720254
   0.44426000  0.55664000  0.16024000
   0.55149714  0.44385275  0.30041329
   0.66878052  0.33570648  0.43517615
   0.77760000  0.55664000  0.16024000
   0.88873072  0.44392146  0.29785401
   0.99831675  0.66438150  0.43413611
   0.11093000  0.88997000  0.16024000
   0.22164584  0.77811297  0.29641082
   0.33441777  0.66947437  0.43505428
   0.44426000  0.88997000  0.16024000
   0.55514687  0.77865767  0.29712949
   0.66868834  0.66963550  0.43563654
   0.77760000  0.88997000  0.16024000
   0.88905740  0.78037631  0.29842232
   0.99982000  0.00108000  0.02337000
   0.33315000  0.00108000  0.02337000
   0.66649000  0.00108000  0.02337000
   0.99982000  0.33441000  0.02337000
   0.33315000  0.33441000  0.02337000
   0.66649000  0.33441000  0.02337000
   0.99982000  0.66775000  0.02337000
   0.33315000  0.66775000  0.02337000
   0.66649000  0.66775000  0.02337000
   0.18485885  0.04164223  0.55094647
   0.22587400  0.26679476  0.55986116
   0.25860820  0.96580425  0.58615954
Direct configuration=    20
   1.00798112 -0.00307495  0.45011846
   0.11093000  0.22330000  0.16024000
   0.22163732  0.11325575  0.29866136
   0.33942385  0.00331763  0.43263097
   0.44426000  0.22330000  0.16024000
   0.55597603  0.11203258  0.29670676
   0.67026873  0.00150669  0.43489754
   0.77760000  0.22330000  0.16024000
   0.89070311  0.11097924  0.29987423
   0.99996830  0.33452162  0.43909283
   0.11093000  0.55664000  0.16024000
   0.22189946  0.44429567  0.29913806
   0.33469476  0.34088825  0.44701957
   0.44426000  0.55664000  0.16024000
   0.55146433  0.44384744  0.30048251
   0.66889236  0.33571365  0.43520875
   0.77760000  0.55664000  0.16024000
   0.88871815  0.44391263  0.29783982
   0.99838088  0.66436969  0.43417074
   0.11093000  0.88997000  0.16024000
   0.22165583  0.77812023  0.29641531
   0.33446567  0.66957581  0.43505570
   0.44426000  0.88997000  0.16024000
   0.55517593  0.77866591  0.29713851
   0.66882208  0.66977358  0.43570501
   0.77760000  0.88997000  0.16024000
   0.88906324  0.78037678  0.29848802
   0.99982000  0.00108000  0.02337000