  17  17   0   0
  0.1996859E+02  0.5111958E-09  0.5111958E-09  0.1500000E-08  0.5000000E-15
  1.000000000000000E-004
  CAR 
 TS                                      
     11.45974462    -17.36758080  301      2.11528849      1.00000000
    -17.368  0.0000E+00  0.0000E+00
    -17.271  0.0000E+00  0.0000E+00
    -17.175  0.0000E+00  0.0000E+00
    -17.079  0.0000E+00  0.0000E+00
    -16.983  0.0000E+00  0.0000E+00
    -16.887  0.0000E+00  0.0000E+00
    -16.791  0.0000E+00  0.0000E+00
    -16.695  0.0000E+00  0.0000E+00
    -16.599  0.0000E+00  0.0000E+00
    -16.503  0.0000E+00  0.0000E+00
    -16.407  0.0000E+00  0.0000E+00
    -16.311  0.0000E+00  0.0000E+00
    -16.214  0.0000E+00  0.0000E+00
    -16.118  0.0000E+00  0.0000E+00
    -16.022  0.3467E-01  0.3331E-02
    -15.926  0.0000E+00  0.3333E-02
    -15.830  0.0000E+00  0.3333E-02
    -15.734  0.0000E+00  0.3333E-02
    -15.638  0.0000E+00  0.3333E-02
    -15.542  0.0000E+00  0.3333E-02
    -15.446  0.0000E+00  0.3333E-02
    -15.350  0.0000E+00  0.3333E-02
    -15.254  0.0000E+00  0.3333E-02
    -15.157  0.0000E+00  0.3333E-02
    -15.061  0.0000E+00  0.3333E-02
    -14.965  0.0000E+00  0.3333E-02
    -14.869  0.0000E+00  0.3333E-02
    -14.773  0.0000E+00  0.3333E-02
    -14.677  0.0000E+00  0.3333E-02
    -14.581  0.0000E+00  0.3333E-02
    -14.485  0.0000E+00  0.3333E-02
    -14.389  0.0000E+00  0.3333E-02
    -14.293  0.0000E+00  0.3333E-02
    -14.197  0.0000E+00  0.3333E-02
    -14.100  0.0000E+00  0.3333E-02
    -14.004  0.0000E+00  0.3333E-02
    -13.908  0.0000E+00  0.3333E-02
    -13.812  0.0000E+00  0.3333E-02
    -13.716  0.0000E+00  0.3333E-02
    -13.620  0.0000E+00  0.3333E-02
    -13.524  0.0000E+00  0.3333E-02
    -13.428  0.0000E+00  0.3333E-02
    -13.332  0.0000E+00  0.3333E-02
    -13.236  0.0000E+00  0.3333E-02
    -13.140  0.0000E+00  0.3333E-02
    -13.043  0.0000E+00  0.3333E-02
    -12.947  0.0000E+00  0.3333E-02
    -12.851  0.0000E+00  0.3333E-02
    -12.755  0.0000E+00  0.3333E-02
    -12.659  0.0000E+00  0.3333E-02
    -12.563  0.0000E+00  0.3333E-02
    -12.467  0.0000E+00  0.3333E-02
    -12.371  0.0000E+00  0.3333E-02
    -12.275  0.0000E+00  0.3333E-02
    -12.179  0.0000E+00  0.3333E-02
    -12.083  0.0000E+00  0.3333E-02
    -11.986  0.0000E+00  0.3333E-02
    -11.890  0.0000E+00  0.3333E-02
    -11.794  0.0000E+00  0.3333E-02
    -11.698  0.0000E+00  0.3333E-02
    -11.602  0.0000E+00  0.3333E-02
    -11.506  0.0000E+00  0.3333E-02
    -11.410  0.0000E+00  0.3333E-02
    -11.314  0.0000E+00  0.3333E-02
    -11.218  0.0000E+00  0.3333E-02
    -11.122  0.0000E+00  0.3333E-02
    -11.026  0.0000E+00  0.3333E-02
    -10.929  0.0000E+00  0.3333E-02
    -10.833  0.0000E+00  0.3333E-02
    -10.737  0.0000E+00  0.3333E-02
    -10.641  0.0000E+00  0.3333E-02
    -10.545  0.0000E+00  0.3333E-02
    -10.449  0.0000E+00  0.3333E-02
    -10.353  0.0000E+00  0.3333E-02
    -10.257  0.0000E+00  0.3333E-02
    -10.161  0.0000E+00  0.3333E-02
    -10.065  0.0000E+00  0.3333E-02
     -9.969  0.0000E+00  0.3333E-02
     -9.872  0.0000E+00  0.3333E-02
     -9.776  0.0000E+00  0.3333E-02
     -9.680  0.0000E+00  0.3333E-02
     -9.584  0.0000E+00  0.3333E-02
     -9.488  0.0000E+00  0.3333E-02
     -9.392  0.0000E+00  0.3333E-02
     -9.296  0.0000E+00  0.3333E-02
     -9.200  0.0000E+00  0.3333E-02
     -9.104  0.0000E+00  0.3333E-02
     -9.008  0.0000E+00  0.3333E-02
     -8.912  0.0000E+00  0.3333E-02
     -8.815  0.0000E+00  0.3333E-02
     -8.719  0.0000E+00  0.3333E-02
     -8.623  0.0000E+00  0.3333E-02
     -8.527  0.0000E+00  0.3333E-02
     -8.431  0.0000E+00  0.3333E-02
     -8.335  0.0000E+00  0.3333E-02
     -8.239  0.0000E+00  0.3333E-02
     -8.143  0.0000E+00  0.3333E-02
     -8.047  0.0000E+00  0.3333E-02
     -7.951  0.0000E+00  0.3333E-02
     -7.855  0.0000E+00  0.3333E-02
     -7.758  0.0000E+00  0.3333E-02
     -7.662  0.0000E+00  0.3333E-02
     -7.566  0.0000E+00  0.3333E-02
     -7.470  0.0000E+00  0.3333E-02
     -7.374  0.0000E+00  0.3333E-02
     -7.278  0.0000E+00  0.3333E-02
     -7.182  0.0000E+00  0.3333E-02
     -7.086  0.0000E+00  0.3333E-02
     -6.990  0.0000E+00  0.3333E-02
     -6.894  0.0000E+00  0.3333E-02
     -6.798  0.0000E+00  0.3333E-02
     -6.701  0.2684E-07  0.3333E-02
     -6.605  0.4283E-03  0.3374E-02
     -6.509  0.2569E-02  0.3621E-02
     -6.413  0.7021E-07  0.3621E-02
     -6.317  0.2570E-02  0.3868E-02
     -6.221  0.2569E-02  0.4115E-02
     -6.125  0.0000E+00  0.4115E-02
     -6.029  0.4262E-05  0.4116E-02
     -5.933  0.5135E-02  0.4609E-02
     -5.837  0.4918E-04  0.4614E-02
     -5.741  0.0000E+00  0.4856E-02
     -5.644  0.0000E+00  0.4856E-02
     -5.548  0.1259E-02  0.4977E-02
     -5.452  0.4483E-02  0.5534E-02
     -5.356  0.1152E-03  0.5608E-02
     -5.260  0.1908E-02  0.5821E-02
     -5.164  0.2570E-02  0.6132E-02
     -5.068  0.2569E-02  0.6379E-02
     -4.972  0.2570E-02  0.6626E-02
     -4.876  0.5139E-02  0.7119E-02
     -4.780  0.2647E-02  0.7374E-02
     -4.684  0.2570E-02  0.8107E-02
     -4.587  0.2568E-02  0.8354E-02
     -4.491  0.7435E-04  0.8361E-02
     -4.395  0.7666E-04  0.8608E-02
     -4.299  0.6000E-02  0.9424E-02
     -4.203  0.6847E-02  0.1008E-01
     -4.107  0.6240E-03  0.1014E-01
     -4.011  0.3633E-02  0.1068E-01
     -3.915  0.1455E-03  0.1084E-01
     -3.819  0.2568E-02  0.1156E-01
     -3.723  0.2938E-02  0.1185E-01
     -3.627  0.5138E-02  0.1235E-01
     -3.530  0.1370E-01  0.1366E-01
     -3.434  0.8553E-02  0.1448E-01
     -3.338  0.8921E-02  0.1551E-01
     -3.242  0.8563E-02  0.1654E-01
     -3.146  0.4350E-02  0.1696E-01
     -3.050  0.1196E-01  0.1819E-01
     -2.954  0.2319E-01  0.2157E-01
     -2.858  0.1131E-01  0.2319E-01
     -2.762  0.1604E-01  0.2512E-01
     -2.666  0.1667E-01  0.2740E-01
     -2.570  0.2187E-01  0.2976E-01
     -2.473  0.2532E-01  0.3219E-01
     -2.377  0.3557E-01  0.3618E-01
     -2.281  0.2231E-01  0.3861E-01
     -2.185  0.2061E-01  0.4091E-01
     -2.089  0.2047E-01  0.4337E-01
     -1.993  0.5814E-01  0.4917E-01
     -1.897  0.3829E-01  0.5413E-01
     -1.801  0.3549E-01  0.6036E-01
     -1.705  0.3888E-01  0.6546E-01
     -1.609  0.3731E-01  0.6943E-01
     -1.513  0.5730E-01  0.7551E-01
     -1.416  0.4676E-01  0.8083E-01
     -1.320  0.4310E-01  0.8575E-01
     -1.224  0.5059E-01  0.9235E-01
     -1.128  0.4530E-01  0.9785E-01
     -1.032  0.6994E-01  0.1053E+00
     -0.936  0.7116E-01  0.1132E+00
     -0.840  0.7824E-01  0.1220E+00
     -0.744  0.9082E-01  0.1321E+00
     -0.648  0.9918E-01  0.1437E+00
     -0.552  0.9849E-01  0.1544E+00
     -0.456  0.1007E+00  0.1655E+00
     -0.359  0.7533E-01  0.1737E+00
     -0.263  0.4810E-01  0.1789E+00
     -0.167  0.9689E-01  0.1900E+00
     -0.071  0.7557E-01  0.1987E+00
      0.025  0.6666E-01  0.2063E+00
      0.121  0.7832E-01  0.2153E+00
      0.217  0.1012E+00  0.2269E+00
      0.313  0.8947E-01  0.2368E+00
      0.409  0.8597E-01  0.2471E+00
      0.505  0.1088E+00  0.2598E+00
      0.601  0.1305E+00  0.2739E+00
      0.698  0.7363E-01  0.2821E+00
      0.794  0.2607E-01  0.2849E+00
      0.890  0.1554E-01  0.2871E+00
      0.986  0.1185E-01  0.2884E+00
      1.082  0.1538E-01  0.2902E+00
      1.178  0.1788E-01  0.2925E+00
      1.274  0.5295E-02  0.2936E+00
      1.370  0.1485E-01  0.2951E+00
      1.466  0.1184E-01  0.2966E+00
      1.562  0.1361E-01  0.2981E+00
      1.658  0.0000E+00  0.2987E+00
      1.755  0.6963E-03  0.2988E+00
      1.851  0.5325E-02  0.2997E+00
      1.947  0.4416E-02  0.3002E+00
      2.043  0.1309E-01  0.3018E+00
      2.139  0.1661E-01  0.3034E+00
      2.235  0.1283E-01  0.3046E+00
      2.331  0.7073E-02  0.3053E+00
      2.427  0.1028E-01  0.3064E+00
      2.523  0.2570E-02  0.3066E+00
      2.619  0.2998E-02  0.3069E+00
      2.715  0.8756E-03  0.3070E+00
      2.812  0.1185E-01  0.3084E+00
      2.908  0.2009E-01  0.3107E+00
      3.004  0.2917E-13  0.3107E+00
      3.100  0.7409E-02  0.3114E+00
      3.196  0.1268E-01  0.3130E+00
      3.292  0.5112E-02  0.3135E+00
      3.388  0.5137E-02  0.3140E+00
      3.484  0.2570E-02  0.3143E+00
      3.580  0.1146E-01  0.3154E+00
      3.676  0.3839E-02  0.3166E+00
      3.772  0.8189E-02  0.3174E+00
      3.869  0.5139E-02  0.3182E+00
      3.965  0.4934E-02  0.3187E+00
      4.061  0.3816E-02  0.3191E+00
      4.157  0.1542E-01  0.3208E+00
      4.253  0.3980E-02  0.3212E+00
      4.349  0.2330E-02  0.3215E+00
      4.445  0.1032E-01  0.3228E+00
      4.541  0.7895E-02  0.3236E+00
      4.637  0.3425E-02  0.3244E+00
      4.733  0.7225E-02  0.3251E+00
      4.829  0.1028E-01  0.3261E+00
      4.926  0.0000E+00  0.3261E+00
      5.022  0.7346E-02  0.3268E+00
      5.118  0.3358E-02  0.3274E+00
      5.214  0.5136E-02  0.3286E+00
      5.310  0.3193E-02  0.3289E+00
      5.406  0.7691E-02  0.3298E+00
      5.502  0.2570E-02  0.3300E+00
      5.598  0.1216E-01  0.3312E+00
      5.694  0.8483E-03  0.3314E+00
      5.790  0.3449E-02  0.3317E+00
      5.886  0.8389E-03  0.3318E+00
      5.983  0.7945E-02  0.3326E+00
      6.079  0.1517E-02  0.3328E+00
      6.175  0.5550E-02  0.3336E+00
      6.271  0.2782E-03  0.3336E+00
      6.367  0.9296E-02  0.3346E+00
      6.463  0.7350E-02  0.3356E+00
      6.559  0.7662E-02  0.3365E+00
      6.655  0.3641E-02  0.3369E+00
      6.751  0.9441E-02  0.3378E+00
      6.847  0.3287E-02  0.3382E+00
      6.943  0.2866E-02  0.3385E+00
      7.040  0.1435E-01  0.3402E+00
      7.136  0.6305E-02  0.3409E+00
      7.232  0.6416E-02  0.3417E+00
      7.328  0.3854E-02  0.3421E+00
      7.424  0.4578E-02  0.3425E+00
      7.520  0.8489E-02  0.3438E+00
      7.616  0.1321E-01  0.3452E+00
      7.712  0.9273E-02  0.3463E+00
      7.808  0.7641E-02  0.3473E+00
      7.904  0.9031E-02  0.3486E+00
      8.000  0.4284E-02  0.3491E+00
      8.097  0.1454E-01  0.3505E+00
      8.193  0.1058E-01  0.3515E+00
      8.289  0.4025E-02  0.3525E+00
      8.385  0.1027E-01  0.3536E+00
      8.481  0.7843E-02  0.3547E+00
      8.577  0.7484E-02  0.3556E+00
      8.673  0.1165E-01  0.3568E+00
      8.769  0.7786E-02  0.3577E+00
      8.865  0.3957E-02  0.3585E+00
      8.961  0.8647E-02  0.3594E+00
      9.057  0.6852E-02  0.3601E+00
      9.154  0.6965E-02  0.3608E+00
      9.250  0.8250E-02  0.3618E+00
      9.346  0.1266E-01  0.3631E+00
      9.442  0.8587E-02  0.3640E+00
      9.538  0.6778E-02  0.3648E+00
      9.634  0.1021E-02  0.3652E+00
      9.730  0.6298E-02  0.3660E+00
      9.826  0.4043E-02  0.3664E+00
      9.922  0.0000E+00  0.3665E+00
     10.018  0.0000E+00  0.3665E+00
     10.114  0.5037E-09  0.3665E+00
     10.211  0.1285E-02  0.3667E+00
     10.307  0.0000E+00  0.3667E+00
     10.403  0.0000E+00  0.3667E+00
     10.499  0.0000E+00  0.3667E+00
     10.595  0.0000E+00  0.3667E+00
     10.691  0.0000E+00  0.3667E+00
     10.787  0.0000E+00  0.3667E+00
     10.883  0.0000E+00  0.3667E+00
     10.979  0.0000E+00  0.3667E+00
     11.075  0.0000E+00  0.3667E+00
     11.171  0.0000E+00  0.3667E+00
     11.268  0.0000E+00  0.3667E+00
     11.364  0.0000E+00  0.3667E+00
     11.460  0.0000E+00  0.3667E+00
