       N       E                     dE             d eps       ncg     rms          rms(c)
DAV:   1     0.183201982251E+04    0.18320E+04   -0.76737E+04 18040   0.242E+03
DAV:   2     0.243141506514E+03   -0.15889E+04   -0.15384E+04 18040   0.510E+02
DAV:   3    -0.484537150571E+02   -0.29160E+03   -0.26831E+03 21420   0.249E+02
DAV:   4    -0.772992489781E+02   -0.28846E+02   -0.26773E+02 26100   0.884E+01
DAV:   5    -0.784065047873E+02   -0.11073E+01   -0.10987E+01 22050   0.194E+01    0.319E+01
DAV:   6    -0.709087815398E+02    0.74977E+01   -0.17563E+02 21950   0.141E+02    0.214E+01
DAV:   7    -0.630270374369E+02    0.78817E+01   -0.44565E+01 23010   0.879E+01    0.752E+00
DAV:   8    -0.626496256309E+02    0.37741E+00   -0.13339E+01 23590   0.674E+01    0.491E+00
DAV:   9    -0.624799916885E+02    0.16963E+00   -0.31697E+00 26060   0.290E+01    0.239E+00
DAV:  10    -0.624256988818E+02    0.54293E-01   -0.11015E+00 27680   0.128E+01    0.233E+00
DAV:  11    -0.624142826335E+02    0.11416E-01   -0.51992E-01 26120   0.117E+01    0.190E+00
DAV:  12    -0.623874592806E+02    0.26823E-01   -0.24519E-01 26060   0.455E+00    0.980E-01
DAV:  13    -0.623801278747E+02    0.73314E-02   -0.12557E-01 27740   0.497E+00    0.755E-01
DAV:  14    -0.623724701661E+02    0.76577E-02   -0.33303E-02 23890   0.366E+00    0.317E-01
DAV:  15    -0.623729184185E+02   -0.44825E-03   -0.15925E-02 26200   0.149E+00    0.152E-01
DAV:  16    -0.623726135129E+02    0.30491E-03   -0.26350E-03 23570   0.736E-01    0.474E-02
DAV:  17    -0.623727772931E+02   -0.16378E-03   -0.17509E-03 31890   0.553E-01    0.111E-01
DAV:  18    -0.623726828363E+02    0.94457E-04   -0.41088E-04 26660   0.338E-01    0.782E-02
DAV:  19    -0.623727105603E+02   -0.27724E-04   -0.65945E-04 28080   0.287E-01    0.309E-02
DAV:  20    -0.623728250324E+02   -0.11447E-03   -0.25363E-04 24950   0.166E-01    0.371E-02
DAV:  21    -0.623728346382E+02   -0.96057E-05   -0.48513E-05 24370   0.816E-02    0.192E-02
DAV:  22    -0.623728503409E+02   -0.15703E-04   -0.21254E-05 22710   0.561E-02    0.137E-02
DAV:  23    -0.623728789957E+02   -0.28655E-04   -0.13282E-05 25630   0.475E-02    0.596E-03
DAV:  24    -0.623728818903E+02   -0.28946E-05   -0.24300E-06 22080   0.289E-02    0.392E-03
DAV:  25    -0.623728830921E+02   -0.12018E-05   -0.12739E-06 20930   0.203E-02    0.244E-03
DAV:  26    -0.623728850361E+02   -0.19441E-05   -0.18133E-06 25690   0.122E-02    0.217E-03
DAV:  27    -0.623728850267E+02    0.94187E-08   -0.28795E-07 14960   0.742E-03
   1 F= -.62372885E+02 E0= -.62372733E+02  d E =-.623729E+02
       N       E                     dE             d eps       ncg     rms          rms(c)
DAV:   1    -0.623729195818E+02   -0.34546E-04   -0.43232E-02 18160   0.681E-01    0.263E-02
DAV:   2    -0.623730315531E+02   -0.11197E-03   -0.11791E-03 26640   0.184E-01    0.181E-02
DAV:   3    -0.623730300825E+02    0.14706E-05   -0.33390E-05 22010   0.112E-01    0.152E-02
DAV:   4    -0.623730287545E+02    0.13281E-05   -0.79704E-06 23560   0.812E-02    0.113E-02
DAV:   5    -0.623730272466E+02    0.15079E-05   -0.61754E-06 34080   0.523E-02    0.597E-03
DAV:   6    -0.623730266798E+02    0.56677E-06   -0.38774E-06 30180   0.470E-02    0.280E-03
DAV:   7    -0.623730266681E+02    0.11743E-07   -0.13467E-06 25310   0.212E-02    0.171E-03
DAV:   8    -0.623730266387E+02    0.29333E-07   -0.19784E-07 11450   0.753E-03
   2 F= -.62373027E+02 E0= -.62372876E+02  d E =-.141612E-03
       N       E                     dE             d eps       ncg     rms          rms(c)
DAV:   1    -0.623722651022E+02    0.76157E-03   -0.38918E-01 18040   0.204E+00    0.783E-02
DAV:   2    -0.623732786179E+02   -0.10135E-02   -0.10664E-02 26420   0.541E-01    0.532E-02
DAV:   3    -0.623732605134E+02    0.18105E-04   -0.24139E-04 22320   0.273E-01    0.432E-02
DAV:   4    -0.623732512170E+02    0.92964E-05   -0.70229E-05 22960   0.249E-01    0.338E-02
DAV:   5    -0.623732387601E+02    0.12457E-04   -0.66952E-05 35060   0.197E-01    0.188E-02
DAV:   6    -0.623732327044E+02    0.60556E-05   -0.36412E-05 32940   0.157E-01    0.860E-03
DAV:   7    -0.623732326179E+02    0.86475E-07   -0.11395E-05 26900   0.621E-02    0.517E-03
DAV:   8    -0.623732325454E+02    0.72541E-07   -0.24878E-06 21000   0.295E-02    0.309E-03
DAV:   9    -0.623732326348E+02   -0.89403E-07   -0.96982E-07 22650   0.187E-02
   3 F= -.62373233E+02 E0= -.62373086E+02  d E =-.347608E-03
       N       E                     dE             d eps       ncg     rms          rms(c)
DAV:   1    -0.623732089827E+02    0.23563E-04   -0.94079E-03 18040   0.319E-01    0.124E-02
DAV:   2    -0.623732337557E+02   -0.24773E-04   -0.26114E-04 26620   0.868E-02    0.857E-03
DAV:   3    -0.623732336392E+02    0.11648E-06   -0.92957E-06 22030   0.628E-02    0.764E-03
DAV:   4    -0.623732332553E+02    0.38389E-06   -0.18180E-06 23050   0.381E-02    0.530E-03
DAV:   5    -0.623732331431E+02    0.11216E-06   -0.14097E-06 25530   0.263E-02    0.315E-03
DAV:   6    -0.623732331195E+02    0.23680E-07   -0.11132E-06 22620   0.271E-02    0.151E-03
DAV:   7    -0.623732331404E+02   -0.20886E-07   -0.31120E-07 16220   0.105E-02
   4 F= -.62373233E+02 E0= -.62373087E+02  d E =-.348114E-03
       N       E                     dE             d eps       ncg     rms          rms(c)
DAV:   1    -0.623731508758E+02    0.82244E-04   -0.40152E-02 18750   0.654E-01    0.206E-02
DAV:   2    -0.623732409415E+02   -0.90066E-04   -0.90272E-04 28800   0.275E-01    0.273E-02
DAV:   3    -0.623732392063E+02    0.17352E-05   -0.10803E-04 20390   0.239E-01    0.145E-02
DAV:   4    -0.623732382915E+02    0.91477E-06   -0.20871E-05 20440   0.805E-02    0.960E-03
DAV:   5    -0.623732380414E+02    0.25014E-06   -0.82501E-06 21190   0.719E-02    0.774E-03
DAV:   6    -0.623732375126E+02    0.52876E-06   -0.65314E-06 22660   0.648E-02    0.208E-03
DAV:   7    -0.623732376055E+02   -0.92903E-07   -0.18744E-06 29790   0.199E-02    0.157E-03
DAV:   8    -0.623732375803E+02    0.25197E-07   -0.32952E-07 14800   0.974E-03
   5 F= -.62373238E+02 E0= -.62373092E+02  d E =-.443997E-05
       N       E                     dE             d eps       ncg     rms          rms(c)
DAV:   1    -0.623732297115E+02    0.78940E-05   -0.98102E-03 18750   0.324E-01    0.100E-02
DAV:   2    -0.623732506190E+02   -0.20907E-04   -0.21794E-04 28580   0.130E-01    0.129E-02
DAV:   3    -0.623732504356E+02    0.18339E-06   -0.25593E-05 20280   0.113E-01    0.736E-03
DAV:   4    -0.623732500263E+02    0.40931E-06   -0.47236E-06 20620   0.401E-02    0.483E-03
DAV:   5    -0.623732497499E+02    0.27635E-06   -0.19927E-06 22700   0.347E-02    0.371E-03
DAV:   6    -0.623732495208E+02    0.22915E-06   -0.14980E-06 22280   0.321E-02    0.858E-04
DAV:   7    -0.623732495276E+02   -0.67848E-08   -0.28393E-07 12500   0.104E-02
   6 F= -.62373250E+02 E0= -.62373104E+02  d E =-.163872E-04
       N       E                     dE             d eps       ncg     rms          rms(c)
DAV:   1    -0.623732440827E+02    0.54381E-05   -0.41899E-03 18070   0.216E-01    0.736E-03
DAV:   2    -0.623732545678E+02   -0.10485E-04   -0.10829E-04 27190   0.591E-02    0.542E-03
DAV:   3    -0.623732544252E+02    0.14269E-06   -0.20974E-06 20830   0.236E-02    0.386E-03
DAV:   4    -0.623732543686E+02    0.56571E-07   -0.74948E-07 20860   0.222E-02
   7 F= -.62373254E+02 E0= -.62373108E+02  d E =-.484100E-05
       N       E                     dE             d eps       ncg     rms          rms(c)
DAV:   1    -0.623732292822E+02    0.25143E-04   -0.10631E-02 18070   0.344E-01    0.120E-02
DAV:   2    -0.623732556815E+02   -0.26399E-04   -0.27422E-04 25860   0.890E-02    0.890E-03
DAV:   3    -0.623732554380E+02    0.24350E-06   -0.63833E-06 22910   0.535E-02    0.757E-03
DAV:   4    -0.623732549869E+02    0.45109E-06   -0.21974E-06 23440   0.441E-02    0.541E-03
DAV:   5    -0.623732546627E+02    0.32420E-06   -0.14491E-06 26370   0.193E-02    0.199E-03
DAV:   6    -0.623732546900E+02   -0.27328E-07   -0.62681E-07 20520   0.236E-02
   8 F= -.62373255E+02 E0= -.62373108E+02  d E =-.516243E-05
       N       E                     dE             d eps       ncg     rms          rms(c)
DAV:   1    -0.623732509966E+02    0.36661E-05   -0.19698E-03 18040   0.147E-01    0.777E-03
DAV:   2    -0.623732580850E+02   -0.70884E-05   -0.72812E-05 26760   0.492E-02    0.429E-03
DAV:   3    -0.623732581681E+02   -0.83099E-07   -0.30172E-06 20930   0.412E-02    0.356E-03
DAV:   4    -0.623732581170E+02    0.51074E-07   -0.77826E-07 19490   0.235E-02
   9 F= -.62373258E+02 E0= -.62373112E+02  d E =-.342700E-05
       N       E                     dE             d eps       ncg     rms          rms(c)
DAV:   1    -0.623732064677E+02    0.51700E-04   -0.17721E-02 18040   0.437E-01    0.217E-02
DAV:   2    -0.623732679999E+02   -0.61532E-04   -0.64267E-04 26600   0.140E-01    0.134E-02
DAV:   3    -0.623732680111E+02   -0.11194E-07   -0.24411E-05 21250   0.112E-01    0.112E-02
DAV:   4    -0.623732673586E+02    0.65252E-06   -0.63098E-06 23880   0.669E-02    0.745E-03
DAV:   5    -0.623732670941E+02    0.26451E-06   -0.32475E-06 29590   0.293E-02    0.459E-03
DAV:   6    -0.623732670844E+02    0.96879E-08   -0.20084E-06 23520   0.277E-02    0.191E-03
DAV:   7    -0.623732671136E+02   -0.29144E-07   -0.77352E-07 24380   0.151E-02
  10 F= -.62373267E+02 E0= -.62373120E+02  d E =-.124236E-04
       N       E                     dE             d eps       ncg     rms          rms(c)
DAV:   1    -0.623730348240E+02    0.23226E-03   -0.70929E-02 18040   0.874E-01    0.444E-02
DAV:   2    -0.623732814177E+02   -0.24659E-03   -0.25923E-03 26610   0.276E-01    0.254E-02
DAV:   3    -0.623732803518E+02    0.10659E-05   -0.92302E-05 21420   0.205E-01    0.204E-02
DAV:   4    -0.623732784024E+02    0.19494E-05   -0.22763E-05 24000   0.126E-01    0.140E-02
DAV:   5    -0.623732776405E+02    0.76186E-06   -0.11531E-05 31930   0.634E-02    0.931E-03
DAV:   6    -0.623732769928E+02    0.64775E-06   -0.74141E-06 24640   0.564E-02    0.373E-03
DAV:   7    -0.623732770776E+02   -0.84819E-07   -0.29651E-06 27550   0.313E-02    0.222E-03
DAV:   8    -0.623732770763E+02    0.13424E-08   -0.63838E-07 19930   0.142E-02
  11 F= -.62373277E+02 E0= -.62373130E+02  d E =-.223862E-04
       N       E                     dE             d eps       ncg     rms          rms(c)
DAV:   1    -0.623732778766E+02   -0.79899E-06   -0.11613E-03 18040   0.112E-01    0.555E-03
DAV:   2    -0.623732816966E+02   -0.38200E-05   -0.38814E-05 25210   0.308E-02    0.315E-03
DAV:   3    -0.623732817214E+02   -0.24818E-07   -0.94546E-07 21460   0.144E-02
  12 F= -.62373282E+02 E0= -.62373134E+02  d E =-.464517E-05
       N       E                     dE             d eps       ncg     rms          rms(c)
DAV:   1    -0.623732645796E+02    0.17117E-04   -0.10459E-02 18040   0.336E-01    0.151E-02
DAV:   2    -0.623732964691E+02   -0.31890E-04   -0.33078E-04 25590   0.920E-02    0.101E-02
DAV:   3    -0.623732959508E+02    0.51831E-06   -0.75447E-06 21700   0.437E-02    0.707E-03
DAV:   4    -0.623732958921E+02    0.58699E-07   -0.33258E-06 22730   0.443E-02    0.614E-03
DAV:   5    -0.623732957646E+02    0.12745E-06   -0.19850E-06 23520   0.425E-02    0.412E-03
DAV:   6    -0.623732957289E+02    0.35769E-07   -0.16803E-06 28570   0.323E-02    0.116E-03
DAV:   7    -0.623732957416E+02   -0.12769E-07   -0.29283E-07 15810   0.111E-02
  13 F= -.62373296E+02 E0= -.62373148E+02  d E =-.186654E-04
       N       E                     dE             d eps       ncg     rms          rms(c)
DAV:   1    -0.623731988364E+02    0.96893E-04   -0.41814E-02 18040   0.671E-01    0.311E-02
DAV:   2    -0.623733274480E+02   -0.12861E-03   -0.13391E-03 26010   0.176E-01    0.190E-02
DAV:   3    -0.623733252327E+02    0.22153E-05   -0.26533E-05 22570   0.930E-02    0.145E-02
DAV:   4    -0.623733241824E+02    0.10503E-05   -0.13385E-05 22510   0.999E-02    0.110E-02
DAV:   5    -0.623733233507E+02    0.83173E-06   -0.53091E-06 26580   0.647E-02    0.677E-03
DAV:   6    -0.623733231780E+02    0.17271E-06   -0.44701E-06 28290   0.485E-02    0.222E-03
DAV:   7    -0.623733232348E+02   -0.56774E-07   -0.13775E-06 27380   0.248E-02    0.144E-03
DAV:   8    -0.623733232299E+02    0.48240E-08   -0.16624E-07 11410   0.114E-02
  14 F= -.62373323E+02 E0= -.62373175E+02  d E =-.461537E-04
       N       E                     dE             d eps       ncg     rms          rms(c)
DAV:   1    -0.623728823234E+02    0.44091E-03   -0.16731E-01 18040   0.134E+00    0.616E-02
DAV:   2    -0.623733953264E+02   -0.51300E-03   -0.53618E-03 26270   0.359E-01    0.382E-02
DAV:   3    -0.623733836688E+02    0.11658E-04   -0.10670E-04 21570   0.175E-01    0.281E-02
DAV:   4    -0.623733805905E+02    0.30783E-05   -0.50838E-05 22230   0.188E-01    0.224E-02
DAV:   5    -0.623733776812E+02    0.29093E-05   -0.22743E-05 25840   0.138E-01    0.143E-02
DAV:   6    -0.623733765337E+02    0.11475E-05   -0.19294E-05 29270   0.996E-02    0.434E-03
DAV:   7    -0.623733767221E+02   -0.18840E-06   -0.57079E-06 30700   0.471E-02    0.295E-03
DAV:   8    -0.623733766821E+02    0.39945E-07   -0.91427E-07 23050   0.235E-02
  15 F= -.62373377E+02 E0= -.62373227E+02  d E =-.996059E-04
       N       E                     dE             d eps       ncg     rms          rms(c)
DAV:   1    -0.623712854276E+02    0.20913E-02   -0.66942E-01 18040   0.269E+00    0.123E-01
DAV:   2    -0.623733299356E+02   -0.20445E-02   -0.21419E-02 26550   0.739E-01    0.761E-02
DAV:   3    -0.623732848169E+02    0.45119E-04   -0.43695E-04 21140   0.348E-01    0.543E-02
DAV:   4    -0.623732755901E+02    0.92268E-05   -0.19405E-04 22190   0.353E-01    0.449E-02
DAV:   5    -0.623732606335E+02    0.14957E-04   -0.94604E-05 24860   0.288E-01    0.297E-02
DAV:   6    -0.623732542307E+02    0.64028E-05   -0.81047E-05 30300   0.205E-01    0.875E-03
DAV:   7    -0.623732547199E+02   -0.48924E-06   -0.22846E-05 31110   0.874E-02    0.591E-03
DAV:   8    -0.623732545261E+02    0.19380E-06   -0.42205E-06 25970   0.450E-02    0.461E-03
DAV:   9    -0.623732544245E+02    0.10161E-06   -0.30604E-06 21270   0.315E-02    0.244E-03
DAV:  10    -0.623732544674E+02   -0.42855E-07   -0.68393E-07 22180   0.126E-02
  16 F= -.62373254E+02 E0= -.62373102E+02  d E =0.226089E-04
       N       E                     dE             d eps       ncg     rms          rms(c)
DAV:   1    -0.623718543860E+02    0.14000E-02   -0.52340E-01 18040   0.238E+00    0.109E-01
DAV:   2    -0.623734697656E+02   -0.16154E-02   -0.16923E-02 25560   0.612E-01    0.710E-02
DAV:   3    -0.623734406680E+02    0.29098E-04   -0.38078E-04 23270   0.401E-01    0.563E-02
DAV:   4    -0.623734135154E+02    0.27153E-04   -0.18851E-04 23340   0.389E-01    0.392E-02
DAV:   5    -0.623733965363E+02    0.16979E-04   -0.66313E-05 30030   0.208E-01    0.232E-02
DAV:   6    -0.623733900702E+02    0.64661E-05   -0.50710E-05 26980   0.180E-01    0.838E-03
DAV:   7    -0.623733902122E+02   -0.14209E-06   -0.19395E-05 28070   0.970E-02    0.504E-03
DAV:   8    -0.623733899499E+02    0.26232E-06   -0.28896E-06 27610   0.407E-02    0.354E-03
DAV:   9    -0.623733897652E+02    0.18473E-06   -0.14943E-06 21600   0.216E-02    0.172E-03
DAV:  10    -0.623733897350E+02    0.30221E-07   -0.51097E-07 21360   0.113E-02
  17 F= -.62373390E+02 E0= -.62373240E+02  d E =-.112659E-03
       N       E                     dE             d eps       ncg     rms          rms(c)
DAV:   1    -0.623733973143E+02   -0.75491E-05   -0.62733E-03 18040   0.261E-01    0.112E-02
DAV:   2    -0.623734154027E+02   -0.18088E-04   -0.18723E-04 26940   0.960E-02    0.892E-03
DAV:   3    -0.623734155577E+02   -0.15501E-06   -0.13353E-05 20750   0.910E-02    0.747E-03
DAV:   4    -0.623734150375E+02    0.52019E-06   -0.26322E-06 22970   0.415E-02    0.404E-03
DAV:   5    -0.623734149854E+02    0.52089E-07   -0.10606E-06 24040   0.228E-02    0.289E-03
DAV:   6    -0.623734148763E+02    0.10918E-06   -0.79508E-07 21410   0.223E-02    0.123E-03
DAV:   7    -0.623734148711E+02    0.51914E-08   -0.20885E-07 12550   0.122E-02
  18 F= -.62373415E+02 E0= -.62373266E+02  d E =-.251361E-04
       N       E                     dE             d eps       ncg     rms          rms(c)
DAV:   1    -0.623734136460E+02    0.12303E-05   -0.20245E-03 18040   0.148E-01    0.661E-03
DAV:   2    -0.623734195151E+02   -0.58692E-05   -0.60777E-05 26940   0.544E-02    0.488E-03
DAV:   3    -0.623734196292E+02   -0.11410E-06   -0.46855E-06 20770   0.534E-02    0.434E-03
DAV:   4    -0.623734194470E+02    0.18227E-06   -0.92183E-07 19390   0.250E-02    0.220E-03
DAV:   5    -0.623734194310E+02    0.15978E-07   -0.29738E-07 13420   0.125E-02
  19 F= -.62373419E+02 E0= -.62373271E+02  d E =-.296960E-04
       N       E                     dE             d eps       ncg     rms          rms(c)
DAV:   1    -0.623734356885E+02   -0.16242E-04   -0.78816E-03 18840   0.283E-01    0.667E-03
DAV:   2    -0.623734488397E+02   -0.13151E-04   -0.13822E-04 27730   0.726E-02    0.690E-03
DAV:   3    -0.623734489430E+02   -0.10327E-06   -0.73740E-06 20090   0.516E-02    0.601E-03
DAV:   4    -0.623734486149E+02    0.32806E-06   -0.11197E-06 20870   0.270E-02    0.420E-03
DAV:   5    -0.623734483126E+02    0.30228E-06   -0.11602E-06 27940   0.209E-02    0.260E-03
DAV:   6    -0.623734481868E+02    0.12580E-06   -0.52860E-07 18750   0.227E-02    0.143E-03
DAV:   7    -0.623734481621E+02    0.24742E-07   -0.16504E-07 10370   0.775E-03
  20 F= -.62373448E+02 E0= -.62373301E+02  d E =-.287311E-04
       N       E                     dE             d eps       ncg     rms          rms(c)
DAV:   1    -0.623734170822E+02    0.31105E-04   -0.29381E-02 18850   0.546E-01    0.126E-02
DAV:   2    -0.623734640798E+02   -0.46998E-04   -0.49062E-04 27780   0.143E-01    0.127E-02
DAV:   3    -0.623734646393E+02   -0.55947E-06   -0.26986E-05 20230   0.100E-01    0.111E-02
DAV:   4    -0.623734635516E+02    0.10876E-05   -0.42927E-06 21510   0.524E-02    0.774E-03
DAV:   5    -0.623734625806E+02    0.97101E-06   -0.44555E-06 33020   0.366E-02    0.453E-03
DAV:   6    -0.623734622476E+02    0.33305E-06   -0.14745E-06 21460   0.369E-02    0.220E-03
DAV:   7    -0.623734622247E+02    0.22847E-07   -0.52630E-07 18510   0.102E-02
  21 F= -.62373462E+02 E0= -.62373317E+02  d E =-.427937E-04
       N       E                     dE             d eps       ncg     rms          rms(c)
DAV:   1    -0.623734610458E+02    0.12017E-05   -0.14295E-03 18860   0.121E-01    0.314E-03
DAV:   2    -0.623734634782E+02   -0.24324E-05   -0.24462E-05 27800   0.446E-02    0.421E-03
DAV:   3    -0.623734634480E+02    0.30272E-07   -0.24495E-06 20180   0.331E-02    0.251E-03
DAV:   4    -0.623734634212E+02    0.26776E-07   -0.39254E-07 15900   0.103E-02
  22 F= -.62373463E+02 E0= -.62373318E+02  d E =-.439902E-04
       N       E                     dE             d eps       ncg     rms          rms(c)
DAV:   1    -0.623734501618E+02    0.13286E-04   -0.10167E-02 18320   0.327E-01    0.106E-02
DAV:   2    -0.623734713902E+02   -0.21228E-04   -0.21918E-04 27350   0.948E-02    0.837E-03
DAV:   3    -0.623734713252E+02    0.65007E-07   -0.10453E-05 20370   0.704E-02    0.691E-03
DAV:   4    -0.623734709786E+02    0.34658E-06   -0.18332E-06 20430   0.303E-02    0.440E-03
DAV:   5    -0.623734706349E+02    0.34369E-06   -0.15917E-06 28110   0.143E-02    0.179E-03
DAV:   6    -0.623734706123E+02    0.22628E-07   -0.44233E-07 17510   0.165E-02
  23 F= -.62373471E+02 E0= -.62373326E+02  d E =-.719111E-05
       N       E                     dE             d eps       ncg     rms          rms(c)
DAV:   1    -0.623734704982E+02    0.13676E-06   -0.96746E-05 18640   0.334E-02    0.103E-03
DAV:   2    -0.623734707232E+02   -0.22502E-06   -0.22905E-06 27430   0.128E-02    0.131E-03
DAV:   3    -0.623734707094E+02    0.13744E-07   -0.17933E-07 10990   0.101E-02
  24 F= -.62373471E+02 E0= -.62373326E+02  d E =-.728825E-05
       N       E                     dE             d eps       ncg     rms          rms(c)
DAV:   1    -0.623734574637E+02    0.13259E-04   -0.81463E-03 18140   0.296E-01    0.104E-02
DAV:   2    -0.623734763302E+02   -0.18866E-04   -0.19403E-04 26720   0.969E-02    0.884E-03
DAV:   3    -0.623734764159E+02   -0.85663E-07   -0.12556E-05 20670   0.840E-02    0.704E-03
DAV:   4    -0.623734759760E+02    0.43986E-06   -0.24446E-06 22510   0.387E-02    0.429E-03
DAV:   5    -0.623734758651E+02    0.11088E-06   -0.10788E-06 25290   0.235E-02    0.319E-03
DAV:   6    -0.623734757258E+02    0.13929E-06   -0.93284E-07 22160   0.261E-02    0.142E-03
DAV:   7    -0.623734757244E+02    0.13933E-08   -0.32674E-07 15450   0.122E-02
  25 F= -.62373476E+02 E0= -.62373332E+02  d E =-.501501E-05
       N       E                     dE             d eps       ncg     rms          rms(c)
DAV:   1    -0.623734751878E+02    0.53804E-06   -0.24046E-04 18140   0.511E-02    0.164E-03
DAV:   2    -0.623734757170E+02   -0.52921E-06   -0.58737E-06 26740   0.176E-02    0.188E-03
DAV:   3    -0.623734756926E+02    0.24400E-07   -0.27975E-07 13640   0.132E-02
  26 F= -.62373476E+02 E0= -.62373332E+02  d E =-.498317E-05
       N       E                     dE             d eps       ncg     rms          rms(c)
DAV:   1    -0.623734770175E+02   -0.13005E-05   -0.66601E-04 18460   0.849E-02    0.227E-03
DAV:   2    -0.623734783293E+02   -0.13118E-05   -0.13858E-05 27710   0.263E-02    0.236E-03
DAV:   3    -0.623734783190E+02    0.10237E-07   -0.72410E-07 19600   0.200E-02
  27 F= -.62373478E+02 E0= -.62373335E+02  d E =-.262644E-05
       N       E                     dE             d eps       ncg     rms          rms(c)
DAV:   1    -0.623734784672E+02   -0.13787E-06   -0.77000E-04 18490   0.915E-02    0.287E-03
DAV:   2    -0.623734799715E+02   -0.15043E-05   -0.16481E-05 27720   0.297E-02    0.324E-03
DAV:   3    -0.623734799317E+02    0.39778E-07   -0.98337E-07 19570   0.226E-02
  28 F= -.62373480E+02 E0= -.62373336E+02  d E =-.423909E-05
       N       E                     dE             d eps       ncg     rms          rms(c)
DAV:   1    -0.623734794622E+02    0.50928E-06   -0.12325E-04 18040   0.384E-02    0.223E-03
DAV:   2    -0.623734797882E+02   -0.32605E-06   -0.42361E-06 25760   0.113E-02    0.158E-03
DAV:   3    -0.623734797630E+02    0.25211E-07   -0.17968E-07 11630   0.109E-02
  29 F= -.62373480E+02 E0= -.62373336E+02  d E =0.168660E-06
       N       E                     dE             d eps       ncg     rms          rms(c)
DAV:   1    -0.623734797968E+02   -0.85711E-08   -0.22903E-05 22040   0.201E-02    0.114E-03
DAV:   2    -0.623734798833E+02   -0.86504E-07   -0.76693E-07 18440   0.130E-02
  30 F= -.62373480E+02 E0= -.62373336E+02  d E =0.483742E-07
