 vasp.5.4.4.18Apr17-6-g9f103f2a35 (build Jun 16 2022 14:25:58) complex          
  
 executed on             LinuxIFC date 2025.05.07  04:07:52
 running on   20 total cores
 distrk:  each k-point on   20 cores,    1 groups
 distr:  one band on NCORES_PER_BAND=   4 cores,    5 groups


--------------------------------------------------------------------------------------------------------


 INCAR:
 POTCAR:    PAW_PBE Cu 22Jun2005                  
 POTCAR:    PAW_PBE O 08Apr2002                   
 POTCAR:    PAW_PBE Cu 22Jun2005                  
   VRHFIN =Cu: d10 p1                                                           
   LEXCH  = PE                                                                  
   EATOM  =  1390.9808 eV,  102.2342 Ry                                         
                                                                                
   TITEL  = PAW_PBE Cu 22Jun2005                                                
   LULTRA =        F    use ultrasoft PP ?                                      
   IUNSCR =        1    unscreen: 0-lin 1-nonlin 2-no                           
   RPACOR =    2.000    partial core radius                                     
   POMASS =   63.546; ZVAL   =   11.000    mass and valenz                      
   RCORE  =    2.300    outmost cutoff radius                                   
   RWIGS  =    2.200; RWIGS  =    1.164    wigner-seitz radius (au A)           
   ENMAX  =  295.446; ENMIN  =  221.585 eV                                      
   ICORE  =        3    local potential                                         
   LCOR   =        T    correct aug charges                                     
   LPAW   =        T    paw PP                                                  
   EAUG   =  586.980                                                            
   DEXC   =    0.000                                                            
   RMAX   =    2.344    core radius for proj-oper                               
   RAUG   =    1.300    factor for augmentation sphere                          
   RDEP   =    2.302    radius for radial grids                                 
   RDEPT  =    1.771    core radius for aug-charge                              
                                                                                
   Atomic configuration                                                         
    9 entries                                                                   
     n  l   j            E        occ.                                          
     1  0  0.50     -8850.2468   2.0000                                         
     2  0  0.50     -1062.3498   2.0000                                         
     2  1  1.50      -916.8226   6.0000                                         
     3  0  0.50      -114.6929   2.0000                                         
     3  1  1.50       -72.1325   6.0000                                         
     3  2  2.50        -5.0394  10.0000                                         
     4  0  0.50        -4.6097   1.0000                                         
     4  1  0.50        -4.0817   0.0000                                         
     4  3  2.50        -1.3606   0.0000                                         
   Description                                                                  
     l       E           TYP  RCUT    TYP  RCUT                                 
     2     -5.0393973     23  2.200                                             
     2     10.8846608     23  2.200                                             
     0     -4.6097109     23  2.200                                             
     0      8.2520465     23  2.200                                             
     1     -2.7211652     23  2.200                                             
     1     21.7055443     23  2.200                                             
     3      2.7211652     23  2.300                                             
  local pseudopotential read in
  partial core-charges read in
  partial kinetic energy density read in
  atomic valenz-charges read in
  non local Contribution for L=           2  read in
    real space projection operators read in
  non local Contribution for L=           2  read in
    real space projection operators read in
  non local Contribution for L=           0  read in
    real space projection operators read in
  non local Contribution for L=           0  read in
    real space projection operators read in
  non local Contribution for L=           1  read in
    real space projection operators read in
  non local Contribution for L=           1  read in
    real space projection operators read in
    PAW grid and wavefunctions read in
 
   number of l-projection  operators is LMAX  =           6
   number of lm-projection operators is LMMAX =          18
 
 POTCAR:    PAW_PBE O 08Apr2002                   
   VRHFIN =O: s2p4                                                              
   LEXCH  = PE                                                                  
   EATOM  =   432.3788 eV,   31.7789 Ry                                         
                                                                                
   TITEL  = PAW_PBE O 08Apr2002                                                 
   LULTRA =        F    use ultrasoft PP ?                                      
   IUNSCR =        1    unscreen: 0-lin 1-nonlin 2-no                           
   RPACOR =    1.200    partial core radius                                     
   POMASS =   16.000; ZVAL   =    6.000    mass and valenz                      
   RCORE  =    1.520    outmost cutoff radius                                   
   RWIGS  =    1.550; RWIGS  =    0.820    wigner-seitz radius (au A)           
   ENMAX  =  400.000; ENMIN  =  300.000 eV                                      
   ICORE  =        2    local potential                                         
   LCOR   =        T    correct aug charges                                     
   LPAW   =        T    paw PP                                                  
   EAUG   =  605.392                                                            
   DEXC   =    0.000                                                            
   RMAX   =    1.553    core radius for proj-oper                               
   RAUG   =    1.300    factor for augmentation sphere                          
   RDEP   =    1.550    radius for radial grids                                 
   RDEPT  =    1.329    core radius for aug-charge                              
                                                                                
   Atomic configuration                                                         
    4 entries                                                                   
     n  l   j            E        occ.                                          
     1  0  0.50      -514.6923   2.0000                                         
     2  0  0.50       -23.9615   2.0000                                         
     2  1  0.50        -9.0305   4.0000                                         
     3  2  1.50        -9.5241   0.0000                                         
   Description                                                                  
     l       E           TYP  RCUT    TYP  RCUT                                 
     0    -23.9615318     23  1.200                                             
     0     -9.5240782     23  1.200                                             
     1     -9.0304911     23  1.520                                             
     1      8.1634956     23  1.520                                             
     2     -9.5240782      7  1.500                                             
  local pseudopotential read in
  partial core-charges read in
  partial kinetic energy density read in
  kinetic energy density of atom read in
  atomic valenz-charges read in
  non local Contribution for L=           0  read in
    real space projection operators read in
  non local Contribution for L=           0  read in
    real space projection operators read in
  non local Contribution for L=           1  read in
    real space projection operators read in
  non local Contribution for L=           1  read in
    real space projection operators read in
    PAW grid and wavefunctions read in
 
   number of l-projection  operators is LMAX  =           4
   number of lm-projection operators is LMMAX =           8
 
 Optimization of the real space projectors (new method)

 maximal supplied QI-value         = 16.25
 optimisation between [QCUT,QGAM] = [ 11.38, 22.75] = [ 36.24,144.96] Ry 
 Optimized for a Real-space Cutoff    1.52 Angstroem

   l    n(q)    QCUT    max X(q) W(low)/X(q) W(high)/X(q)  e(spline) 
   2      9    11.376     4.610    0.21E-03    0.10E-03    0.26E-06
   2      9    11.376     8.522    0.33E-03    0.16E-03    0.37E-06
   0     10    11.376    51.609    0.62E-04    0.20E-04    0.13E-06
   0     10    11.376    27.747    0.54E-04    0.20E-04    0.13E-06
   1     10    11.376    20.408    0.13E-04    0.99E-04    0.19E-06
   1     10    11.376    13.425    0.12E-04    0.87E-04    0.17E-06
 Optimization of the real space projectors (new method)

 maximal supplied QI-value         = 24.76
 optimisation between [QCUT,QGAM] = [ 11.39, 22.77] = [ 36.31,145.25] Ry 
 Optimized for a Real-space Cutoff    1.00 Angstroem

   l    n(q)    QCUT    max X(q) W(low)/X(q) W(high)/X(q)  e(spline) 
   0      7    11.387    20.381    0.39E-03    0.13E-02    0.15E-06
   0      7    11.387    15.268    0.42E-03    0.14E-02    0.17E-06
   1      6    11.387     5.964    0.41E-03    0.11E-02    0.17E-06
   1      6    11.387     5.382    0.39E-03    0.87E-03    0.15E-06
  PAW_PBE Cu 22Jun2005                  :
 energy of atom  1       EATOM=-1390.9808
 kinetic energy error for atom=    0.0043 (will be added to EATOM!!)
  PAW_PBE O 08Apr2002                   :
 energy of atom  2       EATOM= -432.3788
 kinetic energy error for atom=    0.0224 (will be added to EATOM!!)
 
 
 POSCAR: Cu  O                                   
  positions in direct lattice
  velocities in cartesian coordinates
 exchange correlation table for  LEXCH =        8
   RHO(1)=    0.500       N(1)  =     2000
   RHO(2)=  100.500       N(2)  =     4000

 VTST: version 3.2, (02/03/18)

 CHAIN: initializing optimizer
 
 OPT: Using VASP Conjugate-Gradient optimizer
 CHAIN: Read ICHAIN            0
 
 POSCAR: Cu  O                                   
  positions in direct lattice
  velocities in cartesian coordinates
 


--------------------------------------------------------------------------------------------------------


 ion  position               nearest neighbor table
   1  0.000  0.000  0.000-   5 2.56   8 2.56  13 2.56  12 2.56  12 2.56   9 2.56   9 2.56   4 2.56
                             4 2.56
   2  0.832  0.668  0.279-   7 2.49   6 2.53  10 2.53  14 2.56  14 2.56   8 2.56   5 2.57  16 2.57
                             6 2.58  10 2.58   3 2.59  15 2.59
   3  0.505  0.510  0.422-  17 1.90  11 2.48  15 2.48   7 2.56   7 2.56   6 2.59   2 2.59  11 2.63
                            15 2.63  14 2.66
   4  0.500  0.500  0.000-  16 2.56  13 2.56   8 2.56   9 2.56   9 2.56  12 2.56  12 2.56   1 2.56
                             1 2.56
   5  0.167  0.833  0.139-  14 2.54   1 2.56  12 2.56   9 2.56   8 2.56   8 2.56  13 2.56  13 2.56
                            16 2.56  16 2.56   2 2.57   6 2.57
   6  0.336  0.668  0.279-   7 2.49   2 2.53  10 2.53  14 2.56  14 2.56   8 2.56  13 2.57   5 2.57
                             2 2.58  10 2.58   3 2.59  11 2.59
   7  0.000  0.500  0.412-   2 2.49   6 2.49  10 2.49   3 2.56  15 2.56  11 2.56  11 2.56   3 2.56
                            15 2.56
   8  0.667  0.833  0.139-  12 2.56   1 2.56   4 2.56   5 2.56   5 2.56  16 2.56  16 2.56  13 2.56
                            13 2.56   6 2.56  10 2.56   2 2.56
   9  0.000  0.500  0.000-  13 2.56  16 2.56   5 2.56   4 2.56   4 2.56   1 2.56   1 2.56  12 2.56
                            12 2.56
  10  0.832  0.164  0.279-   7 2.49   2 2.53   6 2.53  14 2.56  14 2.56   8 2.56  13 2.57  16 2.57
                             2 2.58   6 2.58  15 2.59  11 2.59
  11  0.505  0.995  0.422-  17 1.90  15 2.48   3 2.48   7 2.56   7 2.56  10 2.59   6 2.59  15 2.63
                             3 2.63  14 2.66
  12  0.500  0.000  0.000-   8 2.56   5 2.56  16 2.56   1 2.56   1 2.56   4 2.56   4 2.56   9 2.56
                             9 2.56
  13  0.167  0.333  0.139-  14 2.54   9 2.56   4 2.56   1 2.56  16 2.56  16 2.56   5 2.56   5 2.56
                             8 2.56   8 2.56  10 2.57   6 2.57
  14  0.333  0.167  0.277-  16 2.54   5 2.54  13 2.54  10 2.56   6 2.56   2 2.56   2 2.56  10 2.56
                             6 2.56  11 2.66  15 2.66   3 2.66
  15  0.990  0.995  0.422-  17 1.90  11 2.48   3 2.48   7 2.56   7 2.56  10 2.59   2 2.59  11 2.63
                             3 2.63  14 2.66
  16  0.667  0.333  0.139-  14 2.54   4 2.56   9 2.56  12 2.56  13 2.56  13 2.56   8 2.56   8 2.56
                             5 2.56   5 2.56   2 2.57  10 2.57
  17  0.333  0.167  0.498-  11 1.90   3 1.90  15 1.90
 

IMPORTANT INFORMATION: All symmetrisations will be switched off!
NOSYMM: (Re-)initialisation of all symmetry stuff for point group C_1.

 
 
 KPOINTS: K-Spacing Value to Generate K-Mesh: 0.04

Automatic generation of k-mesh.
Space group operators:
 irot       det(A)        alpha          n_x          n_y          n_z        tau_x        tau_y        tau_z
    1     1.000000     0.000000     1.000000     0.000000     0.000000     0.000000     0.000000     0.000000
 
 Subroutine IBZKPT returns following result:
 ===========================================
 
 Found     82 irreducible k-points:
 
 Following reciprocal coordinates:
            Coordinates               Weight
  0.000000  0.000000  0.000000      1.000000
  0.111111  0.000000  0.000000      2.000000
  0.222222  0.000000  0.000000      2.000000
  0.333333  0.000000  0.000000      2.000000
  0.444444  0.000000  0.000000      2.000000
 -0.000000  0.111111  0.000000      2.000000
  0.111111  0.111111  0.000000      2.000000
  0.222222  0.111111  0.000000      2.000000
  0.333333  0.111111  0.000000      2.000000
  0.444444  0.111111  0.000000      2.000000
 -0.444444  0.111111  0.000000      2.000000
 -0.333333  0.111111  0.000000      2.000000
 -0.222222  0.111111  0.000000      2.000000
 -0.111111  0.111111  0.000000      2.000000
  0.000000  0.222222  0.000000      2.000000
  0.111111  0.222222  0.000000      2.000000
  0.222222  0.222222  0.000000      2.000000
  0.333333  0.222222  0.000000      2.000000
  0.444444  0.222222  0.000000      2.000000
 -0.444444  0.222222  0.000000      2.000000
 -0.333333  0.222222  0.000000      2.000000
 -0.222222  0.222222  0.000000      2.000000
 -0.111111  0.222222  0.000000      2.000000
  0.000000  0.333333  0.000000      2.000000
  0.111111  0.333333  0.000000      2.000000
  0.222222  0.333333  0.000000      2.000000
  0.333333  0.333333  0.000000      2.000000
  0.444444  0.333333  0.000000      2.000000
 -0.444444  0.333333  0.000000      2.000000
 -0.333333  0.333333  0.000000      2.000000
 -0.222222  0.333333  0.000000      2.000000
 -0.111111  0.333333  0.000000      2.000000
  0.000000  0.444444  0.000000      2.000000
  0.111111  0.444444  0.000000      2.000000
  0.222222  0.444444  0.000000      2.000000
  0.333333  0.444444  0.000000      2.000000
  0.444444  0.444444  0.000000      2.000000
 -0.444444  0.444444  0.000000      2.000000
 -0.333333  0.444444  0.000000      2.000000
 -0.222222  0.444444  0.000000      2.000000
 -0.111111  0.444444  0.000000      2.000000
  0.000000  0.000000  0.500000      1.000000
  0.111111  0.000000  0.500000      2.000000
  0.222222  0.000000  0.500000      2.000000
  0.333333  0.000000  0.500000      2.000000
  0.444444  0.000000  0.500000      2.000000
 -0.000000  0.111111  0.500000      2.000000
  0.111111  0.111111  0.500000      2.000000
  0.222222  0.111111  0.500000      2.000000
  0.333333  0.111111  0.500000      2.000000
  0.444444  0.111111  0.500000      2.000000
 -0.444444  0.111111  0.500000      2.000000
 -0.333333  0.111111  0.500000      2.000000
 -0.222222  0.111111  0.500000      2.000000
 -0.111111  0.111111  0.500000      2.000000
  0.000000  0.222222  0.500000      2.000000
  0.111111  0.222222  0.500000      2.000000
  0.222222  0.222222  0.500000      2.000000
  0.333333  0.222222  0.500000      2.000000
  0.444444  0.222222  0.500000      2.000000
 -0.444444  0.222222  0.500000      2.000000
 -0.333333  0.222222  0.500000      2.000000
 -0.222222  0.222222  0.500000      2.000000
 -0.111111  0.222222  0.500000      2.000000
  0.000000  0.333333  0.500000      2.000000
  0.111111  0.333333  0.500000      2.000000
  0.222222  0.333333  0.500000      2.000000
  0.333333  0.333333  0.500000      2.000000
  0.444444  0.333333  0.500000      2.000000
 -0.444444  0.333333  0.500000      2.000000
 -0.333333  0.333333  0.500000      2.000000
 -0.222222  0.333333  0.500000      2.000000
 -0.111111  0.333333  0.500000      2.000000
  0.000000  0.444444  0.500000      2.000000
  0.111111  0.444444  0.500000      2.000000
  0.222222  0.444444  0.500000      2.000000
  0.333333  0.444444  0.500000      2.000000
  0.444444  0.444444  0.500000      2.000000
 -0.444444  0.444444  0.500000      2.000000
 -0.333333  0.444444  0.500000      2.000000
 -0.222222  0.444444  0.500000      2.000000
 -0.111111  0.444444  0.500000      2.000000
 
 Following cartesian coordinates:
            Coordinates               Weight
  0.000000  0.000000  0.000000      1.000000
  0.025098  0.000000  0.000000      2.000000
  0.050196  0.000000  0.000000      2.000000
  0.075294  0.000000  0.000000      2.000000
  0.100392  0.000000  0.000000      2.000000
  0.012549  0.021736  0.000000      2.000000
  0.037647  0.021736  0.000000      2.000000
  0.062745  0.021736  0.000000      2.000000
  0.087843  0.021736  0.000000      2.000000
  0.112941  0.021736  0.000000      2.000000
 -0.087843  0.021736  0.000000      2.000000
 -0.062745  0.021736  0.000000      2.000000
 -0.037647  0.021736  0.000000      2.000000
 -0.012549  0.021736  0.000000      2.000000
  0.025098  0.043471  0.000000      2.000000
  0.050196  0.043471  0.000000      2.000000
  0.075294  0.043471  0.000000      2.000000
  0.100392  0.043471  0.000000      2.000000
  0.125490  0.043471  0.000000      2.000000
 -0.075294  0.043471  0.000000      2.000000
 -0.050196  0.043471  0.000000      2.000000
 -0.025098  0.043471  0.000000      2.000000
  0.000000  0.043471  0.000000      2.000000
  0.037647  0.065207  0.000000      2.000000
  0.062745  0.065207  0.000000      2.000000
  0.087843  0.065207  0.000000      2.000000
  0.112941  0.065207  0.000000      2.000000
  0.138039  0.065207  0.000000      2.000000
 -0.062745  0.065207  0.000000      2.000000
 -0.037647  0.065207  0.000000      2.000000
 -0.012549  0.065207  0.000000      2.000000
  0.012549  0.065207  0.000000      2.000000
  0.050196  0.086942  0.000000      2.000000
  0.075294  0.086942  0.000000      2.000000
  0.100392  0.086942  0.000000      2.000000
  0.125490  0.086942  0.000000      2.000000
  0.150588  0.086942  0.000000      2.000000
 -0.050196  0.086942  0.000000      2.000000
 -0.025098  0.086942  0.000000      2.000000
 -0.000000  0.086942  0.000000      2.000000
  0.025098  0.086942  0.000000      2.000000
  0.000000  0.000000  0.033333      1.000000
  0.025098  0.000000  0.033333      2.000000
  0.050196  0.000000  0.033333      2.000000
  0.075294  0.000000  0.033333      2.000000
  0.100392  0.000000  0.033333      2.000000
  0.012549  0.021736  0.033333      2.000000
  0.037647  0.021736  0.033333      2.000000
  0.062745  0.021736  0.033333      2.000000
  0.087843  0.021736  0.033333      2.000000
  0.112941  0.021736  0.033333      2.000000
 -0.087843  0.021736  0.033333      2.000000
 -0.062745  0.021736  0.033333      2.000000
 -0.037647  0.021736  0.033333      2.000000
 -0.012549  0.021736  0.033333      2.000000
  0.025098  0.043471  0.033333      2.000000
  0.050196  0.043471  0.033333      2.000000
  0.075294  0.043471  0.033333      2.000000
  0.100392  0.043471  0.033333      2.000000
  0.125490  0.043471  0.033333      2.000000
 -0.075294  0.043471  0.033333      2.000000
 -0.050196  0.043471  0.033333      2.000000
 -0.025098  0.043471  0.033333      2.000000
  0.000000  0.043471  0.033333      2.000000
  0.037647  0.065207  0.033333      2.000000
  0.062745  0.065207  0.033333      2.000000
  0.087843  0.065207  0.033333      2.000000
  0.112941  0.065207  0.033333      2.000000
  0.138039  0.065207  0.033333      2.000000
 -0.062745  0.065207  0.033333      2.000000
 -0.037647  0.065207  0.033333      2.000000
 -0.012549  0.065207  0.033333      2.000000
  0.012549  0.065207  0.033333      2.000000
  0.050196  0.086942  0.033333      2.000000
  0.075294  0.086942  0.033333      2.000000
  0.100392  0.086942  0.033333      2.000000
  0.125490  0.086942  0.033333      2.000000
  0.150588  0.086942  0.033333      2.000000
 -0.050196  0.086942  0.033333      2.000000
 -0.025098  0.086942  0.033333      2.000000
 -0.000000  0.086942  0.033333      2.000000
  0.025098  0.086942  0.033333      2.000000
 


--------------------------------------------------------------------------------------------------------




 Dimension of arrays:
   k-points           NKPTS =     82   k-points in BZ     NKDIM =     82   number of bands    NBANDS=    110
   number of dos      NEDOS =    301   number of ions     NIONS =     17
   non local maximal  LDIM  =      6   non local SUM 2l+1 LMDIM =     18
   total plane-waves  NPLWV =  65856
   max r-space proj   IRMAX =   2896   max aug-charges    IRDMAX=   5818
   dimension x,y,z NGX =    28 NGY =   28 NGZ =   84
   dimension x,y,z NGXF=    56 NGYF=   56 NGZF=  168
   support grid    NGXF=    56 NGYF=   56 NGZF=  168
   ions per type =              16   1
   NGX,Y,Z   is equivalent  to a cutoff of   9.11,  9.11,  9.31 a.u.
   NGXF,Y,Z  is equivalent  to a cutoff of  18.21, 18.21, 18.62 a.u.

 SYSTEM =  TS                                      
 POSCAR =  Cu  O                                   

 Startparameter for this run:
   NWRITE =      2    write-flag & timer
   PREC   = normal    normal or accurate (medium, high low for compatibility)
   ISTART =      0    job   : 0-new  1-cont  2-samecut
   ICHARG =      2    charge: 1-file 2-atom 10-const
   ISPIN  =      1    spin polarized calculation?
   LNONCOLLINEAR =      F non collinear calculations
   LSORBIT =      F    spin-orbit coupling
   INIWAV =      1    electr: 0-lowe 1-rand  2-diag
   LASPH  =      F    aspherical Exc in radial PAW
   METAGGA=      F    non-selfconsistent MetaGGA calc.

 Electronic Relaxation 1
   ENCUT  =  500.0 eV  36.75 Ry    6.06 a.u.   9.32  9.32 27.35*2*pi/ulx,y,z
   ENINI  =  500.0     initial cutoff
   ENAUG  =  605.4 eV  augmentation charge cutoff
   NELM   =     60;   NELMIN=  2; NELMDL=  0     # of ELM steps 
   EDIFF  = 0.1E-06   stopping-criterion for ELM
   LREAL  =      T    real-space projection
   NLSPLINE    = F    spline interpolate recip. space projectors
   LCOMPAT=      F    compatible to vasp.4.4
   GGA_COMPAT  = T    GGA compatible to vasp.4.4-vasp.4.6
   LMAXPAW     = -100 max onsite density
   LMAXMIX     =    2 max onsite mixed and CHGCAR
   VOSKOWN=      0    Vosko Wilk Nusair interpolation
   ROPT   =   -0.00050  -0.00050
 Ionic relaxation
   EDIFFG = 0.1E-05   stopping-criterion for IOM
   NSW    =    600    number of steps for IOM
   NBLOCK =      1;   KBLOCK =    600    inner block; outer block 
   IBRION =      2    ionic relax: 0-MD 1-quasi-New 2-CG
   NFREE  =      1    steps in history (QN), initial steepest desc. (CG)
   ISIF   =      2    stress and relaxation
   IWAVPR =     11    prediction:  0-non 1-charg 2-wave 3-comb
   ISYM   =      0    0-nonsym 1-usesym 2-fastsym
   LCORR  =      T    Harris-Foulkes like correction to forces

   POTIM  = 0.5000    time-step for ionic-motion
   TEIN   =    0.0    initial temperature
   TEBEG  =    0.0;   TEEND  =   0.0 temperature during run
   SMASS  =  -3.00    Nose mass-parameter (am)
   estimated Nose-frequenzy (Omega)   =  0.10E-29 period in steps =****** mass=  -0.597E-27a.u.
   SCALEE = 1.0000    scale energy and forces
   NPACO  =    256;   APACO  = 16.0  distance and # of slots for P.C.
   PSTRESS=    0.0 pullay stress

  Mass of Ions in am
   POMASS =  63.55 16.00
  Ionic Valenz
   ZVAL   =  11.00  6.00
  Atomic Wigner-Seitz radii
   RWIGS  =  -1.00 -1.00
  virtual crystal weights 
   VCA    =   1.00  1.00
   NELECT =     182.0000    total number of electrons
   NUPDOWN=      -1.0000    fix difference up-down

 DOS related values:
   EMIN   =  10.00;   EMAX   =-10.00  energy-range for DOS
   EFERMI =   0.00
   ISMEAR =     0;   SIGMA  =   0.01  broadening in eV -4-tet -1-fermi 0-gaus

 Electronic relaxation 2 (details)
   IALGO  =     38    algorithm
   LDIAG  =      T    sub-space diagonalisation (order eigenvalues)
   LSUBROT=      F    optimize rotation matrix (better conditioning)
   TURBO    =      0    0=normal 1=particle mesh
   IRESTART =      0    0=no restart 2=restart with 2 vectors
   NREBOOT  =      0    no. of reboots
   NMIN     =      0    reboot dimension
   EREF     =   0.00    reference energy to select bands
   IMIX   =      4    mixing-type and parameters
     AMIX     =   0.40;   BMIX     =  1.00
     AMIX_MAG =   1.60;   BMIX_MAG =  1.00
     AMIN     =   0.10
     WC   =   100.;   INIMIX=   1;  MIXPRE=   1;  MAXMIX= -45

 Intra band minimization:
   WEIMIN = 0.0010     energy-eigenvalue tresh-hold
   EBREAK =  0.23E-09  absolut break condition
   DEPER  =   0.30     relativ break condition  

   TIME   =   0.40     timestep for ELM

  volume/ion in A,a.u.               =      19.97       134.75
  Fermi-wavevector in a.u.,A,eV,Ry     =   1.329943  2.513229 24.065297  1.768749
  Thomas-Fermi vector in A             =   2.459068
 
 Write flags
   LWAVE        =      F    write WAVECAR
   LDOWNSAMPLE  =      F    k-point downsampling of WAVECAR
   LCHARG       =      F    write CHGCAR
   LVTOT        =      F    write LOCPOT, total local potential
   LVHAR        =      F    write LOCPOT, Hartree potential only
   LELF         =      F    write electronic localiz. function (ELF)
   LORBIT       =      0    0 simple, 1 ext, 2 COOP (PROOUT), +10 PAW based schemes


 Dipole corrections
   LMONO  =      F    monopole corrections only (constant potential shift)
   LDIPOL =      F    correct potential (dipole corrections)
   IDIPOL =      0    1-x, 2-y, 3-z, 4-all directions 
   EPSILON=  1.0000000 bulk dielectric constant

 Exchange correlation treatment:
   GGA     =    --    GGA type
   LEXCH   =     8    internal setting for exchange type
   VOSKOWN=      0    Vosko Wilk Nusair interpolation
   LHFCALC =     F    Hartree Fock is set to
   LHFONE  =     F    Hartree Fock one center treatment
   AEXX    =    0.0000 exact exchange contribution

 Linear response parameters
   LEPSILON=     F    determine dielectric tensor
   LRPA    =     F    only Hartree local field effects (RPA)
   LNABLA  =     F    use nabla operator in PAW spheres
   LVEL    =     F    velocity operator in full k-point grid
   LINTERFAST=   F  fast interpolation
   KINTER  =     0    interpolate to denser k-point grid
   CSHIFT  =0.1000    complex shift for real part using Kramers Kronig
   OMEGAMAX=  -1.0    maximum frequency
   DEG_THRESHOLD= 0.2000000E-02 threshold for treating states as degnerate
   RTIME   =   -0.100 relaxation time in fs
  (WPLASMAI=    0.000 imaginary part of plasma frequency in eV, 0.658/RTIME)
   DFIELD  = 0.0000000 0.0000000 0.0000000 field for delta impulse in time
 
 Orbital magnetization related:
   ORBITALMAG=     F  switch on orbital magnetization
   LCHIMAG   =     F  perturbation theory with respect to B field
   DQ        =  0.001000  dq finite difference perturbation B field
   LLRAUG    =     F  two centre corrections for induced B field



--------------------------------------------------------------------------------------------------------


 conjugate gradient relaxation of ions
   using selective dynamics as specified on POSCAR
 charge density and potential will be updated during run
 non-spin polarized calculation
 Variant of blocked Davidson
 Davidson routine will perform the subspace rotation
 perform sub-space diagonalisation
    after iterative eigenvector-optimisation
 modified Broyden-mixing scheme, WC =      100.0
 initial mixing is a Kerker type mixing with AMIX =  0.4000 and BMIX =      1.0000
 Hartree-type preconditioning will be used
 using additional bands           19
 real space projection scheme for non local part
 use partial core corrections
 calculate Harris-corrections to forces 
   (improved forces if not selfconsistent)
 use gradient corrections 
 use of overlap-Matrix (Vanderbilt PP)
 Gauss-broadening in eV      SIGMA  =   0.01


--------------------------------------------------------------------------------------------------------


  energy-cutoff  :      500.00
  volume of cell :      339.47
      direct lattice vectors                 reciprocal lattice vectors
     4.427085287 -2.555978882  0.000000000     0.225882253  0.000000000  0.000000000
     0.000000000  5.111957764  0.000000000     0.112941127  0.195619770  0.000000000
     0.000000000  0.000000000 15.000000000     0.000000000  0.000000000  0.066666667

  length of vectors
     5.111957764  5.111957764 15.000000000     0.225882253  0.225882253  0.066666667


 
 k-points in units of 2pi/SCALE and weight: K-Spacing Value to Generate K-Mesh: 0.04
   0.00000000  0.00000000  0.00000000       0.006
   0.02509803  0.00000000  0.00000000       0.012
   0.05019606  0.00000000  0.00000000       0.012
   0.07529408  0.00000000  0.00000000       0.012
   0.10039211  0.00000000  0.00000000       0.012
   0.01254901  0.02173553  0.00000000       0.012
   0.03764704  0.02173553  0.00000000       0.012
   0.06274507  0.02173553  0.00000000       0.012
   0.08784310  0.02173553  0.00000000       0.012
   0.11294113  0.02173553  0.00000000       0.012
  -0.08784310  0.02173553  0.00000000       0.012
  -0.06274507  0.02173553  0.00000000       0.012
  -0.03764704  0.02173553  0.00000000       0.012
  -0.01254901  0.02173553  0.00000000       0.012
   0.02509803  0.04347106  0.00000000       0.012
   0.05019606  0.04347106  0.00000000       0.012
   0.07529408  0.04347106  0.00000000       0.012
   0.10039211  0.04347106  0.00000000       0.012
   0.12549014  0.04347106  0.00000000       0.012
  -0.07529408  0.04347106  0.00000000       0.012
  -0.05019606  0.04347106  0.00000000       0.012
  -0.02509803  0.04347106  0.00000000       0.012
   0.00000000  0.04347106  0.00000000       0.012
   0.03764704  0.06520659  0.00000000       0.012
   0.06274507  0.06520659  0.00000000       0.012
   0.08784310  0.06520659  0.00000000       0.012
   0.11294113  0.06520659  0.00000000       0.012
   0.13803915  0.06520659  0.00000000       0.012
  -0.06274507  0.06520659  0.00000000       0.012
  -0.03764704  0.06520659  0.00000000       0.012
  -0.01254901  0.06520659  0.00000000       0.012
   0.01254901  0.06520659  0.00000000       0.012
   0.05019606  0.08694212  0.00000000       0.012
   0.07529408  0.08694212  0.00000000       0.012
   0.10039211  0.08694212  0.00000000       0.012
   0.12549014  0.08694212  0.00000000       0.012
   0.15058817  0.08694212  0.00000000       0.012
  -0.05019606  0.08694212  0.00000000       0.012
  -0.02509803  0.08694212  0.00000000       0.012
  -0.00000000  0.08694212  0.00000000       0.012
   0.02509803  0.08694212  0.00000000       0.012
   0.00000000  0.00000000  0.03333333       0.006
   0.02509803  0.00000000  0.03333333       0.012
   0.05019606  0.00000000  0.03333333       0.012
   0.07529408  0.00000000  0.03333333       0.012
   0.10039211  0.00000000  0.03333333       0.012
   0.01254901  0.02173553  0.03333333       0.012
   0.03764704  0.02173553  0.03333333       0.012
   0.06274507  0.02173553  0.03333333       0.012
   0.08784310  0.02173553  0.03333333       0.012
   0.11294113  0.02173553  0.03333333       0.012
  -0.08784310  0.02173553  0.03333333       0.012
  -0.06274507  0.02173553  0.03333333       0.012
  -0.03764704  0.02173553  0.03333333       0.012
  -0.01254901  0.02173553  0.03333333       0.012
   0.02509803  0.04347106  0.03333333       0.012
   0.05019606  0.04347106  0.03333333       0.012
   0.07529408  0.04347106  0.03333333       0.012
   0.10039211  0.04347106  0.03333333       0.012
   0.12549014  0.04347106  0.03333333       0.012
  -0.07529408  0.04347106  0.03333333       0.012
  -0.05019606  0.04347106  0.03333333       0.012
  -0.02509803  0.04347106  0.03333333       0.012
   0.00000000  0.04347106  0.03333333       0.012
   0.03764704  0.06520659  0.03333333       0.012
   0.06274507  0.06520659  0.03333333       0.012
   0.08784310  0.06520659  0.03333333       0.012
   0.11294113  0.06520659  0.03333333       0.012
   0.13803915  0.06520659  0.03333333       0.012
  -0.06274507  0.06520659  0.03333333       0.012
  -0.03764704  0.06520659  0.03333333       0.012
  -0.01254901  0.06520659  0.03333333       0.012
   0.01254901  0.06520659  0.03333333       0.012
   0.05019606  0.08694212  0.03333333       0.012
   0.07529408  0.08694212  0.03333333       0.012
   0.10039211  0.08694212  0.03333333       0.012
   0.12549014  0.08694212  0.03333333       0.012
   0.15058817  0.08694212  0.03333333       0.012
  -0.05019606  0.08694212  0.03333333       0.012
  -0.02509803  0.08694212  0.03333333       0.012
  -0.00000000  0.08694212  0.03333333       0.012
   0.02509803  0.08694212  0.03333333       0.012
 
 k-points in reciprocal lattice and weights: K-Spacing Value to Generate K-Mesh: 0.04
   0.00000000  0.00000000  0.00000000       0.006
   0.11111111  0.00000000  0.00000000       0.012
   0.22222222  0.00000000  0.00000000       0.012
   0.33333333  0.00000000  0.00000000       0.012
   0.44444444  0.00000000  0.00000000       0.012
  -0.00000000  0.11111111  0.00000000       0.012
   0.11111111  0.11111111  0.00000000       0.012
   0.22222222  0.11111111  0.00000000       0.012
   0.33333333  0.11111111  0.00000000       0.012
   0.44444444  0.11111111  0.00000000       0.012
  -0.44444444  0.11111111  0.00000000       0.012
  -0.33333333  0.11111111  0.00000000       0.012
  -0.22222222  0.11111111  0.00000000       0.012
  -0.11111111  0.11111111  0.00000000       0.012
   0.00000000  0.22222222  0.00000000       0.012
   0.11111111  0.22222222  0.00000000       0.012
   0.22222222  0.22222222  0.00000000       0.012
   0.33333333  0.22222222  0.00000000       0.012
   0.44444444  0.22222222  0.00000000       0.012
  -0.44444444  0.22222222  0.00000000       0.012
  -0.33333333  0.22222222  0.00000000       0.012
  -0.22222222  0.22222222  0.00000000       0.012
  -0.11111111  0.22222222  0.00000000       0.012
   0.00000000  0.33333333  0.00000000       0.012
   0.11111111  0.33333333  0.00000000       0.012
   0.22222222  0.33333333  0.00000000       0.012
   0.33333333  0.33333333  0.00000000       0.012
   0.44444444  0.33333333  0.00000000       0.012
  -0.44444444  0.33333333  0.00000000       0.012
  -0.33333333  0.33333333  0.00000000       0.012
  -0.22222222  0.33333333  0.00000000       0.012
  -0.11111111  0.33333333  0.00000000       0.012
   0.00000000  0.44444444  0.00000000       0.012
   0.11111111  0.44444444  0.00000000       0.012
   0.22222222  0.44444444  0.00000000       0.012
   0.33333333  0.44444444  0.00000000       0.012
   0.44444444  0.44444444  0.00000000       0.012
  -0.44444444  0.44444444  0.00000000       0.012
  -0.33333333  0.44444444  0.00000000       0.012
  -0.22222222  0.44444444  0.00000000       0.012
  -0.11111111  0.44444444  0.00000000       0.012
   0.00000000  0.00000000  0.50000000       0.006
   0.11111111  0.00000000  0.50000000       0.012
   0.22222222  0.00000000  0.50000000       0.012
   0.33333333  0.00000000  0.50000000       0.012
   0.44444444  0.00000000  0.50000000       0.012
  -0.00000000  0.11111111  0.50000000       0.012
   0.11111111  0.11111111  0.50000000       0.012
   0.22222222  0.11111111  0.50000000       0.012
   0.33333333  0.11111111  0.50000000       0.012
   0.44444444  0.11111111  0.50000000       0.012
  -0.44444444  0.11111111  0.50000000       0.012
  -0.33333333  0.11111111  0.50000000       0.012
  -0.22222222  0.11111111  0.50000000       0.012
  -0.11111111  0.11111111  0.50000000       0.012
   0.00000000  0.22222222  0.50000000       0.012
   0.11111111  0.22222222  0.50000000       0.012
   0.22222222  0.22222222  0.50000000       0.012
   0.33333333  0.22222222  0.50000000       0.012
   0.44444444  0.22222222  0.50000000       0.012
  -0.44444444  0.22222222  0.50000000       0.012
  -0.33333333  0.22222222  0.50000000       0.012
  -0.22222222  0.22222222  0.50000000       0.012
  -0.11111111  0.22222222  0.50000000       0.012
   0.00000000  0.33333333  0.50000000       0.012
   0.11111111  0.33333333  0.50000000       0.012
   0.22222222  0.33333333  0.50000000       0.012
   0.33333333  0.33333333  0.50000000       0.012
   0.44444444  0.33333333  0.50000000       0.012
  -0.44444444  0.33333333  0.50000000       0.012
  -0.33333333  0.33333333  0.50000000       0.012
  -0.22222222  0.33333333  0.50000000       0.012
  -0.11111111  0.33333333  0.50000000       0.012
   0.00000000  0.44444444  0.50000000       0.012
   0.11111111  0.44444444  0.50000000       0.012
   0.22222222  0.44444444  0.50000000       0.012
   0.33333333  0.44444444  0.50000000       0.012
   0.44444444  0.44444444  0.50000000       0.012
  -0.44444444  0.44444444  0.50000000       0.012
  -0.33333333  0.44444444  0.50000000       0.012
  -0.22222222  0.44444444  0.50000000       0.012
  -0.11111111  0.44444444  0.50000000       0.012
 
 position of ions in fractional coordinates (direct lattice) 
   0.00000000  0.00000000  0.00000000
   0.83183700  0.66816300  0.27893398
   0.50499763  0.50999528  0.42215032
   0.50000000  0.50000000  0.00000000
   0.16666667  0.83333333  0.13912987
   0.33632600  0.66816300  0.27893398
   0.00000000  0.50000000  0.41204331
   0.66666667  0.83333333  0.13912987
   0.00000000  0.50000000  0.00000000
   0.83183700  0.16367400  0.27893398
   0.50499763  0.99500237  0.42215032
   0.50000000  0.00000000  0.00000000
   0.16666667  0.33333333  0.13912987
   0.33333333  0.16666667  0.27697670
   0.99000472  0.99500237  0.42215032
   0.66666667  0.33333333  0.13912987
   0.33333333  0.16666667  0.49767053
 
 position of ions in cartesian coordinates  (Angst):
   0.00000000  0.00000000  0.00000000
   3.68261333  1.28946325  4.18400972
   2.23566759  1.31631103  6.33225487
   2.21354264  1.27798944  0.00000000
   0.73784755  3.83396832  2.08694802
   1.48894391  2.55597888  4.18400972
   0.00000000  2.55597888  6.18064964
   2.95139019  2.55597888  2.08694802
   0.00000000  2.55597888  0.00000000
   3.68261333 -1.28946325  4.18400972
   2.23566759  3.79564679  6.33225487
   2.21354264 -1.27798944  0.00000000
   0.73784755  1.27798944  2.08694802
   1.47569510 -0.00000000  4.15465048
   4.38283534  2.55597891  6.33225487
   2.95139019  0.00000000  2.08694802
   1.47569509  0.00000002  7.46505798
 


--------------------------------------------------------------------------------------------------------


 k-point  1 :   0.0000 0.0000 0.0000  plane waves:    8599
 k-point  2 :   0.1111 0.0000 0.0000  plane waves:    8622
 k-point  3 :   0.2222 0.0000 0.0000  plane waves:    8636
 k-point  4 :   0.3333 0.0000 0.0000  plane waves:    8596
 k-point  5 :   0.4444 0.0000 0.0000  plane waves:    8616
 k-point  6 :  -0.0000 0.1111 0.0000  plane waves:    8622
 k-point  7 :   0.1111 0.1111 0.0000  plane waves:    8641
 k-point  8 :   0.2222 0.1111 0.0000  plane waves:    8628
 k-point  9 :   0.3333 0.1111 0.0000  plane waves:    8622
 k-point 10 :   0.4444 0.1111 0.0000  plane waves:    8636
 k-point 11 :  -0.4444 0.1111 0.0000  plane waves:    8622
 k-point 12 :  -0.3333 0.1111 0.0000  plane waves:    8628
 k-point 13 :  -0.2222 0.1111 0.0000  plane waves:    8641
 k-point 14 :  -0.1111 0.1111 0.0000  plane waves:    8622
 k-point 15 :   0.0000 0.2222 0.0000  plane waves:    8636
 k-point 16 :   0.1111 0.2222 0.0000  plane waves:    8628
 k-point 17 :   0.2222 0.2222 0.0000  plane waves:    8611
 k-point 18 :   0.3333 0.2222 0.0000  plane waves:    8605
 k-point 19 :   0.4444 0.2222 0.0000  plane waves:    8605
 k-point 20 :  -0.4444 0.2222 0.0000  plane waves:    8611
 k-point 21 :  -0.3333 0.2222 0.0000  plane waves:    8628
 k-point 22 :  -0.2222 0.2222 0.0000  plane waves:    8636
 k-point 23 :  -0.1111 0.2222 0.0000  plane waves:    8641
 k-point 24 :   0.0000 0.3333 0.0000  plane waves:    8596
 k-point 25 :   0.1111 0.3333 0.0000  plane waves:    8622
 k-point 26 :   0.2222 0.3333 0.0000  plane waves:    8605
 k-point 27 :   0.3333 0.3333 0.0000  plane waves:    8601
 k-point 28 :   0.4444 0.3333 0.0000  plane waves:    8605
 k-point 29 :  -0.4444 0.3333 0.0000  plane waves:    8622
 k-point 30 :  -0.3333 0.3333 0.0000  plane waves:    8596
 k-point 31 :  -0.2222 0.3333 0.0000  plane waves:    8628
 k-point 32 :  -0.1111 0.3333 0.0000  plane waves:    8628
 k-point 33 :   0.0000 0.4444 0.0000  plane waves:    8616
 k-point 34 :   0.1111 0.4444 0.0000  plane waves:    8636
 k-point 35 :   0.2222 0.4444 0.0000  plane waves:    8605
 k-point 36 :   0.3333 0.4444 0.0000  plane waves:    8605
 k-point 37 :   0.4444 0.4444 0.0000  plane waves:    8636
 k-point 38 :  -0.4444 0.4444 0.0000  plane waves:    8616
 k-point 39 :  -0.3333 0.4444 0.0000  plane waves:    8622
 k-point 40 :  -0.2222 0.4444 0.0000  plane waves:    8611
 k-point 41 :  -0.1111 0.4444 0.0000  plane waves:    8622
 k-point 42 :   0.0000 0.0000 0.5000  plane waves:    8670
 k-point 43 :   0.1111 0.0000 0.5000  plane waves:    8644
 k-point 44 :   0.2222 0.0000 0.5000  plane waves:    8638
 k-point 45 :   0.3333 0.0000 0.5000  plane waves:    8624
 k-point 46 :   0.4444 0.0000 0.5000  plane waves:    8630
 k-point 47 :  -0.0000 0.1111 0.5000  plane waves:    8644
 k-point 48 :   0.1111 0.1111 0.5000  plane waves:    8646
 k-point 49 :   0.2222 0.1111 0.5000  plane waves:    8608
 k-point 50 :   0.3333 0.1111 0.5000  plane waves:    8628
 k-point 51 :   0.4444 0.1111 0.5000  plane waves:    8592
 k-point 52 :  -0.4444 0.1111 0.5000  plane waves:    8628
 k-point 53 :  -0.3333 0.1111 0.5000  plane waves:    8608
 k-point 54 :  -0.2222 0.1111 0.5000  plane waves:    8646
 k-point 55 :  -0.1111 0.1111 0.5000  plane waves:    8644
 k-point 56 :   0.0000 0.2222 0.5000  plane waves:    8638
 k-point 57 :   0.1111 0.2222 0.5000  plane waves:    8608
 k-point 58 :   0.2222 0.2222 0.5000  plane waves:    8614
 k-point 59 :   0.3333 0.2222 0.5000  plane waves:    8586
 k-point 60 :   0.4444 0.2222 0.5000  plane waves:    8586
 k-point 61 :  -0.4444 0.2222 0.5000  plane waves:    8614
 k-point 62 :  -0.3333 0.2222 0.5000  plane waves:    8608
 k-point 63 :  -0.2222 0.2222 0.5000  plane waves:    8638
 k-point 64 :  -0.1111 0.2222 0.5000  plane waves:    8646
 k-point 65 :   0.0000 0.3333 0.5000  plane waves:    8624
 k-point 66 :   0.1111 0.3333 0.5000  plane waves:    8628
 k-point 67 :   0.2222 0.3333 0.5000  plane waves:    8586
 k-point 68 :   0.3333 0.3333 0.5000  plane waves:    8544
 k-point 69 :   0.4444 0.3333 0.5000  plane waves:    8586
 k-point 70 :  -0.4444 0.3333 0.5000  plane waves:    8628
 k-point 71 :  -0.3333 0.3333 0.5000  plane waves:    8624
 k-point 72 :  -0.2222 0.3333 0.5000  plane waves:    8608
 k-point 73 :  -0.1111 0.3333 0.5000  plane waves:    8608
 k-point 74 :   0.0000 0.4444 0.5000  plane waves:    8630
 k-point 75 :   0.1111 0.4444 0.5000  plane waves:    8592
 k-point 76 :   0.2222 0.4444 0.5000  plane waves:    8586
 k-point 77 :   0.3333 0.4444 0.5000  plane waves:    8586
 k-point 78 :   0.4444 0.4444 0.5000  plane waves:    8592
 k-point 79 :  -0.4444 0.4444 0.5000  plane waves:    8630
 k-point 80 :  -0.3333 0.4444 0.5000  plane waves:    8628
 k-point 81 :  -0.2222 0.4444 0.5000  plane waves:    8614
 k-point 82 :  -0.1111 0.4444 0.5000  plane waves:    8628

 maximum and minimum number of plane-waves per node :      2186     2102

 maximum number of plane-waves:      8670
 maximum index in each direction: 
   IXMAX=    9   IYMAX=    9   IZMAX=   27
   IXMIN=   -9   IYMIN=   -9   IZMIN=  -27


 real space projection operators:
  total allocation   :       6266.44 KBytes
  max/ min on nodes  :       1567.50       1565.41


 parallel 3D FFT for wavefunctions:
    minimum data exchange during FFTs selected (reduces bandwidth)
 parallel 3D FFT for charge:
    minimum data exchange during FFTs selected (reduces bandwidth)


 total amount of memory used by VASP MPI-rank0   102062. kBytes
=======================================================================

   base      :      30000. kBytes
   nonlr-proj:       2753. kBytes
   fftplans  :       1456. kBytes
   grid      :       2255. kBytes
   one-center:         77. kBytes
   wavefun   :      65521. kBytes
 
     INWAV:  cpu time    0.0000: real time    0.0002
 Broyden mixing: mesh for mixing (old mesh)
   NGX = 19   NGY = 19   NGZ = 55
  (NGX  = 56   NGY  = 56   NGZ  =168)
  gives a total of  19855 points

 initial charge density was supplied:
 charge density of overlapping atoms calculated
 number of electron     182.0000000 magnetization 
 keeping initial charge density in first step


--------------------------------------------------------------------------------------------------------


 Maximum index for non-local projection operator          709
 Maximum index for augmentation-charges          369 (set IRDMAX)


--------------------------------------------------------------------------------------------------------


 First call to EWALD:  gamma=   0.254
 Maximum number of real-space cells 4x 4x 2
 Maximum number of reciprocal cells 2x 2x 5

    FEWALD:  cpu time    0.0019: real time    0.0019


--------------------------------------- Iteration      1(   1)  ---------------------------------------


    POTLOK:  cpu time    0.0174: real time    0.0656
    SETDIJ:  cpu time    0.0028: real time    0.0028
     EDDAV:  cpu time   10.8110: real time   11.1081
       DOS:  cpu time    0.0041: real time    0.0041
    --------------------------------------------
      LOOP:  cpu time   10.8353: real time   11.1807

 eigenvalue-minimisations  : 18040
 total energy-change (2. order) : 0.1832020E+04  (-0.7673701E+04)
 number of electron     182.0000000 magnetization 
 augmentation part      182.0000000 magnetization 

 Free energy of the ion-electron system (eV)
  ---------------------------------------------------
  alpha Z        PSCENC =       582.73103390
  Ewald energy   TEWEN  =     13849.00974890
  -Hartree energ DENC   =    -36332.41753967
  -exchange      EXHF   =         0.00000000
  -V(xc)+E(xc)   XCENC  =       756.59415193
  PAW double counting   =     19997.85603494   -21693.12362158
  entropy T*S    EENTRO =        -0.00046510
  eigenvalues    EBANDS =      1983.38932060
  atomic energy  EATOM  =     22687.98115858
  Solvation  Ediel_sol  =         0.00000000
  ---------------------------------------------------
  free energy    TOTEN  =      1832.01982251 eV

  energy without entropy =     1832.02028761  energy(sigma->0) =     1832.02005506


--------------------------------------------------------------------------------------------------------




--------------------------------------- Iteration      1(   2)  ---------------------------------------


     EDDAV:  cpu time   10.8458: real time   11.1115
       DOS:  cpu time    0.0041: real time    0.0041
    --------------------------------------------
      LOOP:  cpu time   10.8498: real time   11.1157

 eigenvalue-minimisations  : 18040
 total energy-change (2. order) :-0.1588878E+04  (-0.1538352E+04)
 number of electron     182.0000000 magnetization 
 augmentation part      182.0000000 magnetization 

 Free energy of the ion-electron system (eV)
  ---------------------------------------------------
  alpha Z        PSCENC =       582.73103390
  Ewald energy   TEWEN  =     13849.00974890
  -Hartree energ DENC   =    -36332.41753967
  -exchange      EXHF   =         0.00000000
  -V(xc)+E(xc)   XCENC  =       756.59415193
  PAW double counting   =     19997.85603494   -21693.12362158
  entropy T*S    EENTRO =        -0.00028058
  eigenvalues    EBANDS =       394.51082008
  atomic energy  EATOM  =     22687.98115858
  Solvation  Ediel_sol  =         0.00000000
  ---------------------------------------------------
  free energy    TOTEN  =       243.14150651 eV

  energy without entropy =      243.14178710  energy(sigma->0) =      243.14164681


--------------------------------------------------------------------------------------------------------




--------------------------------------- Iteration      1(   3)  ---------------------------------------


     EDDAV:  cpu time   12.3744: real time   12.6848
       DOS:  cpu time    0.0041: real time    0.0042
    --------------------------------------------
      LOOP:  cpu time   12.3786: real time   12.6890

 eigenvalue-minimisations  : 21420
 total energy-change (2. order) :-0.2915952E+03  (-0.2683077E+03)
 number of electron     182.0000000 magnetization 
 augmentation part      182.0000000 magnetization 

 Free energy of the ion-electron system (eV)
  ---------------------------------------------------
  alpha Z        PSCENC =       582.73103390
  Ewald energy   TEWEN  =     13849.00974890
  -Hartree energ DENC   =    -36332.41753967
  -exchange      EXHF   =         0.00000000
  -V(xc)+E(xc)   XCENC  =       756.59415193
  PAW double counting   =     19997.85603494   -21693.12362158
  entropy T*S    EENTRO =        -0.00062835
  eigenvalues    EBANDS =       102.91594628
  atomic energy  EATOM  =     22687.98115858
  Solvation  Ediel_sol  =         0.00000000
  ---------------------------------------------------
  free energy    TOTEN  =       -48.45371506 eV

  energy without entropy =      -48.45308671  energy(sigma->0) =      -48.45340088


--------------------------------------------------------------------------------------------------------




--------------------------------------- Iteration      1(   4)  ---------------------------------------


     EDDAV:  cpu time   14.4629: real time   14.8929
       DOS:  cpu time    0.0042: real time    0.0042
    --------------------------------------------
      LOOP:  cpu time   14.4671: real time   14.8971

 eigenvalue-minimisations  : 26100
 total energy-change (2. order) :-0.2884553E+02  (-0.2677318E+02)
 number of electron     182.0000000 magnetization 
 augmentation part      182.0000000 magnetization 

 Free energy of the ion-electron system (eV)
  ---------------------------------------------------
  alpha Z        PSCENC =       582.73103390
  Ewald energy   TEWEN  =     13849.00974890
  -Hartree energ DENC   =    -36332.41753967
  -exchange      EXHF   =         0.00000000
  -V(xc)+E(xc)   XCENC  =       756.59415193
  PAW double counting   =     19997.85603494   -21693.12362158
  entropy T*S    EENTRO =        -0.00084511
  eigenvalues    EBANDS =        74.07062912
  atomic energy  EATOM  =     22687.98115858
  Solvation  Ediel_sol  =         0.00000000
  ---------------------------------------------------
  free energy    TOTEN  =       -77.29924898 eV

  energy without entropy =      -77.29840387  energy(sigma->0) =      -77.29882642


--------------------------------------------------------------------------------------------------------




--------------------------------------- Iteration      1(   5)  ---------------------------------------


     EDDAV:  cpu time   12.6334: real time   12.9202
       DOS:  cpu time    0.0040: real time    0.0040
    CHARGE:  cpu time    0.3816: real time    0.3835
    MIXING:  cpu time    0.0007: real time    0.0008
    --------------------------------------------
      LOOP:  cpu time   13.0197: real time   13.3086

 eigenvalue-minimisations  : 22050
 total energy-change (2. order) :-0.1107256E+01  (-0.1098662E+01)
 number of electron     181.9999844 magnetization 
 augmentation part      104.6274735 magnetization 

 Broyden mixing:
  rms(total) = 0.31923E+01    rms(broyden)= 0.31921E+01
  rms(prec ) = 0.36228E+01
  weight for this iteration     100.00

 Free energy of the ion-electron system (eV)
  ---------------------------------------------------
  alpha Z        PSCENC =       582.73103390
  Ewald energy   TEWEN  =     13849.00974890
  -Hartree energ DENC   =    -36332.41753967
  -exchange      EXHF   =         0.00000000
  -V(xc)+E(xc)   XCENC  =       756.59415193
  PAW double counting   =     19997.85603494   -21693.12362158
  entropy T*S    EENTRO =        -0.00126244
  eigenvalues    EBANDS =        72.96379064
  atomic energy  EATOM  =     22687.98115858
  Solvation  Ediel_sol  =         0.00000000
  ---------------------------------------------------
  free energy    TOTEN  =       -78.40650479 eV

  energy without entropy =      -78.40524234  energy(sigma->0) =      -78.40587357


--------------------------------------------------------------------------------------------------------




--------------------------------------- Iteration      1(   6)  ---------------------------------------


    POTLOK:  cpu time    0.0151: real time    0.0172
    SETDIJ:  cpu time    0.0027: real time    0.0027
     EDDAV:  cpu time   12.6329: real time   12.9483
       DOS:  cpu time    0.0038: real time    0.0039
    CHARGE:  cpu time    0.3953: real time    0.4020
    MIXING:  cpu time    0.0007: real time    0.0008
    --------------------------------------------
      LOOP:  cpu time   13.0506: real time   13.3749

 eigenvalue-minimisations  : 21950
 total energy-change (2. order) : 0.7497723E+01  (-0.1756255E+02)
 number of electron     181.9999835 magnetization 
 augmentation part      117.8486991 magnetization 

 Broyden mixing:
  rms(total) = 0.21430E+01    rms(broyden)= 0.21426E+01
  rms(prec ) = 0.25516E+01
  weight for this iteration     100.00

 eigenvalues of (default mixing * dielectric matrix)
  average eigenvalue GAMMA=   0.6037
  0.6037

 Free energy of the ion-electron system (eV)
  ---------------------------------------------------
  alpha Z        PSCENC =       582.73103390
  Ewald energy   TEWEN  =     13849.00974890
  -Hartree energ DENC   =    -35866.83192400
  -exchange      EXHF   =         0.00000000
  -V(xc)+E(xc)   XCENC  =       735.77955301
  PAW double counting   =     20253.28192179   -21857.23309237
  entropy T*S    EENTRO =        -0.00111907
  eigenvalues    EBANDS =      -455.62606228
  atomic energy  EATOM  =     22687.98115858
  Solvation  Ediel_sol  =         0.00000000
  ---------------------------------------------------
  free energy    TOTEN  =       -70.90878154 eV

  energy without entropy =      -70.90766247  energy(sigma->0) =      -70.90822200


--------------------------------------------------------------------------------------------------------




--------------------------------------- Iteration      1(   7)  ---------------------------------------


    POTLOK:  cpu time    0.0151: real time    0.0157
    SETDIJ:  cpu time    0.0027: real time    0.0028
     EDDAV:  cpu time   13.0681: real time   13.4377
       DOS:  cpu time    0.0042: real time    0.0044
    CHARGE:  cpu time    0.3861: real time    0.3897
    MIXING:  cpu time    0.0006: real time    0.0006
    --------------------------------------------
      LOOP:  cpu time   13.4769: real time   13.8509

 eigenvalue-minimisations  : 23010
 total energy-change (2. order) : 0.7881744E+01  (-0.4456524E+01)
 number of electron     181.9999834 magnetization 
 augmentation part      114.1490573 magnetization 

 Broyden mixing:
  rms(total) = 0.75180E+00    rms(broyden)= 0.75137E+00
  rms(prec ) = 0.10881E+01
  weight for this iteration     100.00

 eigenvalues of (default mixing * dielectric matrix)
  average eigenvalue GAMMA=   0.5060
  0.6006  0.4115

 Free energy of the ion-electron system (eV)
  ---------------------------------------------------
  alpha Z        PSCENC =       582.73103390
  Ewald energy   TEWEN  =     13849.00974890
  -Hartree energ DENC   =    -36038.26209268
  -exchange      EXHF   =         0.00000000
  -V(xc)+E(xc)   XCENC  =       741.52135247
  PAW double counting   =     20632.90627533   -22310.00136058
  entropy T*S    EENTRO =        -0.00051341
  eigenvalues    EBANDS =      -208.91263995
  atomic energy  EATOM  =     22687.98115858
  Solvation  Ediel_sol  =         0.00000000
  ---------------------------------------------------
  free energy    TOTEN  =       -63.02703744 eV

  energy without entropy =      -63.02652402  energy(sigma->0) =      -63.02678073


--------------------------------------------------------------------------------------------------------




--------------------------------------- Iteration      1(   8)  ---------------------------------------


    POTLOK:  cpu time    0.0150: real time    0.0154
    SETDIJ:  cpu time    0.0028: real time    0.0028
     EDDAV:  cpu time   13.2972: real time   13.5994
       DOS:  cpu time    0.0039: real time    0.0039
    CHARGE:  cpu time    0.3863: real time    0.3901
    MIXING:  cpu time    0.0007: real time    0.0007
    --------------------------------------------
      LOOP:  cpu time   13.7058: real time   14.0124

 eigenvalue-minimisations  : 23590
 total energy-change (2. order) : 0.3774118E+00  (-0.1333873E+01)
 number of electron     181.9999834 magnetization 
 augmentation part      113.1594541 magnetization 

 Broyden mixing:
  rms(total) = 0.49094E+00    rms(broyden)= 0.49084E+00
  rms(prec ) = 0.60956E+00
  weight for this iteration     100.00

 eigenvalues of (default mixing * dielectric matrix)
  average eigenvalue GAMMA=   0.4635
  0.6616  0.3954  0.3336

 Free energy of the ion-electron system (eV)
  ---------------------------------------------------
  alpha Z        PSCENC =       582.73103390
  Ewald energy   TEWEN  =     13849.00974890
  -Hartree energ DENC   =    -36049.76882065
  -exchange      EXHF   =         0.00000000
  -V(xc)+E(xc)   XCENC  =       742.52197907
  PAW double counting   =     20769.96647929   -22462.12527480
  entropy T*S    EENTRO =        -0.00006861
  eigenvalues    EBANDS =      -182.96586131
  atomic energy  EATOM  =     22687.98115858
  Solvation  Ediel_sol  =         0.00000000
  ---------------------------------------------------
  free energy    TOTEN  =       -62.64962563 eV

  energy without entropy =      -62.64955702  energy(sigma->0) =      -62.64959133


--------------------------------------------------------------------------------------------------------




--------------------------------------- Iteration      1(   9)  ---------------------------------------


    POTLOK:  cpu time    0.0154: real time    0.0176
    SETDIJ:  cpu time    0.0027: real time    0.0027
     EDDAV:  cpu time   14.4762: real time   14.9016
       DOS:  cpu time    0.0042: real time    0.0042
    CHARGE:  cpu time    0.3875: real time    0.3924
    MIXING:  cpu time    0.0007: real time    0.0007
    --------------------------------------------
      LOOP:  cpu time   14.8867: real time   15.3192

 eigenvalue-minimisations  : 26060
 total energy-change (2. order) : 0.1696339E+00  (-0.3169659E+00)
 number of electron     181.9999836 magnetization 
 augmentation part      112.7871489 magnetization 

 Broyden mixing:
  rms(total) = 0.23936E+00    rms(broyden)= 0.23933E+00
  rms(prec ) = 0.30276E+00
  weight for this iteration     100.00

 eigenvalues of (default mixing * dielectric matrix)
  average eigenvalue GAMMA=   0.7759
  1.7543  0.5390  0.5390  0.2714

 Free energy of the ion-electron system (eV)
  ---------------------------------------------------
  alpha Z        PSCENC =       582.73103390
  Ewald energy   TEWEN  =     13849.00974890
  -Hartree energ DENC   =    -36053.12627881
  -exchange      EXHF   =         0.00000000
  -V(xc)+E(xc)   XCENC  =       742.67564508
  PAW double counting   =     20877.42994511   -22577.97662481
  entropy T*S    EENTRO =        -0.00041371
  eigenvalues    EBANDS =      -171.20420593
  atomic energy  EATOM  =     22687.98115858
  Solvation  Ediel_sol  =         0.00000000
  ---------------------------------------------------
  free energy    TOTEN  =       -62.47999169 eV

  energy without entropy =      -62.47957798  energy(sigma->0) =      -62.47978483


--------------------------------------------------------------------------------------------------------




--------------------------------------- Iteration      1(  10)  ---------------------------------------


    POTLOK:  cpu time    0.0150: real time    0.0154
    SETDIJ:  cpu time    0.0027: real time    0.0027
     EDDAV:  cpu time   15.5733: real time   15.9637
       DOS:  cpu time    0.0033: real time    0.0034
    CHARGE:  cpu time    0.3888: real time    0.3951
    MIXING:  cpu time    0.0007: real time    0.0007
    --------------------------------------------
      LOOP:  cpu time   15.9839: real time   16.3811

 eigenvalue-minimisations  : 27680
 total energy-change (2. order) : 0.5429281E-01  (-0.1101526E+00)
 number of electron     181.9999836 magnetization 
 augmentation part      112.7420439 magnetization 

 Broyden mixing:
  rms(total) = 0.23338E+00    rms(broyden)= 0.23330E+00
  rms(prec ) = 0.29840E+00
  weight for this iteration     100.00

 eigenvalues of (default mixing * dielectric matrix)
  average eigenvalue GAMMA=   0.7608
  2.0485  0.5678  0.4697  0.4697  0.2485

 Free energy of the ion-electron system (eV)
  ---------------------------------------------------
  alpha Z        PSCENC =       582.73103390
  Ewald energy   TEWEN  =     13849.00974890
  -Hartree energ DENC   =    -36036.99072734
  -exchange      EXHF   =         0.00000000
  -V(xc)+E(xc)   XCENC  =       741.79040963
  PAW double counting   =     21212.75546879   -22932.05437362
  entropy T*S    EENTRO =        -0.00000270
  eigenvalues    EBANDS =      -167.64841502
  atomic energy  EATOM  =     22687.98115858
  Solvation  Ediel_sol  =         0.00000000
  ---------------------------------------------------
  free energy    TOTEN  =       -62.42569888 eV

  energy without entropy =      -62.42569618  energy(sigma->0) =      -62.42569753


--------------------------------------------------------------------------------------------------------




--------------------------------------- Iteration      1(  11)  ---------------------------------------


    POTLOK:  cpu time    0.0156: real time    0.0178
    SETDIJ:  cpu time    0.0028: real time    0.0028
     EDDAV:  cpu time   14.4148: real time   14.7670
       DOS:  cpu time    0.0039: real time    0.0039
    CHARGE:  cpu time    0.3849: real time    0.3876
    MIXING:  cpu time    0.0008: real time    0.0008
    --------------------------------------------
      LOOP:  cpu time   14.8229: real time   15.1799

 eigenvalue-minimisations  : 26120
 total energy-change (2. order) : 0.1141625E-01  (-0.5199237E-01)
 number of electron     181.9999838 magnetization 
 augmentation part      112.7125410 magnetization 

 Broyden mixing:
  rms(total) = 0.19024E+00    rms(broyden)= 0.19024E+00
  rms(prec ) = 0.22382E+00
  weight for this iteration     100.00

 eigenvalues of (default mixing * dielectric matrix)
  average eigenvalue GAMMA=   0.8228
  2.1375  0.8315  0.6691  0.6691  0.2568  0.3728

 Free energy of the ion-electron system (eV)
  ---------------------------------------------------
  alpha Z        PSCENC =       582.73103390
  Ewald energy   TEWEN  =     13849.00974890
  -Hartree energ DENC   =    -36033.99777817
  -exchange      EXHF   =         0.00000000
  -V(xc)+E(xc)   XCENC  =       741.55099772
  PAW double counting   =     21282.77343800   -23006.35835763
  entropy T*S    EENTRO =        -0.00011666
  eigenvalues    EBANDS =      -166.10440728
  atomic energy  EATOM  =     22687.98115858
  Solvation  Ediel_sol  =         0.00000000
  ---------------------------------------------------
  free energy    TOTEN  =       -62.41428263 eV

  energy without entropy =      -62.41416598  energy(sigma->0) =      -62.41422430


--------------------------------------------------------------------------------------------------------




--------------------------------------- Iteration      1(  12)  ---------------------------------------


    POTLOK:  cpu time    0.0150: real time    0.0154
    SETDIJ:  cpu time    0.0027: real time    0.0027
     EDDAV:  cpu time   14.4931: real time   14.8257
       DOS:  cpu time    0.0041: real time    0.0043
    CHARGE:  cpu time    0.3891: real time    0.3960
    MIXING:  cpu time    0.0008: real time    0.0009
    --------------------------------------------
      LOOP:  cpu time   14.9049: real time   15.2450

 eigenvalue-minimisations  : 26060
 total energy-change (2. order) : 0.2682335E-01  (-0.2451871E-01)
 number of electron     181.9999837 magnetization 
 augmentation part      112.7360438 magnetization 

 Broyden mixing:
  rms(total) = 0.97965E-01    rms(broyden)= 0.97902E-01
  rms(prec ) = 0.12675E+00
  weight for this iteration     100.00

 eigenvalues of (default mixing * dielectric matrix)
  average eigenvalue GAMMA=   0.8333
  2.3461  0.8547  0.8547  0.5655  0.5655  0.2554  0.3908

 Free energy of the ion-electron system (eV)
  ---------------------------------------------------
  alpha Z        PSCENC =       582.73103390
  Ewald energy   TEWEN  =     13849.00974890
  -Hartree energ DENC   =    -36031.12214683
  -exchange      EXHF   =         0.00000000
  -V(xc)+E(xc)   XCENC  =       741.17995888
  PAW double counting   =     21332.15078018   -23058.77089871
  entropy T*S    EENTRO =        -0.00048450
  eigenvalues    EBANDS =      -165.54660969
  atomic energy  EATOM  =     22687.98115858
  Solvation  Ediel_sol  =         0.00000000
  ---------------------------------------------------
  free energy    TOTEN  =       -62.38745928 eV

  energy without entropy =      -62.38697479  energy(sigma->0) =      -62.38721703


--------------------------------------------------------------------------------------------------------




--------------------------------------- Iteration      1(  13)  ---------------------------------------


    POTLOK:  cpu time    0.0156: real time    0.0180
    SETDIJ:  cpu time    0.0027: real time    0.0028
     EDDAV:  cpu time   16.7387: real time   17.1645
       DOS:  cpu time    0.0040: real time    0.0040
    CHARGE:  cpu time    0.3864: real time    0.3902
    MIXING:  cpu time    0.0008: real time    0.0008
    --------------------------------------------
      LOOP:  cpu time   17.1483: real time   17.5803

 eigenvalue-minimisations  : 27740
 total energy-change (2. order) : 0.7331406E-02  (-0.1255679E-01)
 number of electron     181.9999837 magnetization 
 augmentation part      112.8663557 magnetization 

 Broyden mixing:
  rms(total) = 0.75509E-01    rms(broyden)= 0.75501E-01
  rms(prec ) = 0.94863E-01
  weight for this iteration     100.00

 eigenvalues of (default mixing * dielectric matrix)
  average eigenvalue GAMMA=   0.8250
  2.2677  1.2750  0.6133  0.6133  0.7121  0.2559  0.4870  0.3760

 Free energy of the ion-electron system (eV)
  ---------------------------------------------------
  alpha Z        PSCENC =       582.73103390
  Ewald energy   TEWEN  =     13849.00974890
  -Hartree energ DENC   =    -36025.20695308
  -exchange      EXHF   =         0.00000000
  -V(xc)+E(xc)   XCENC  =       740.88733749
  PAW double counting   =     21362.18833330   -23089.10768115
  entropy T*S    EENTRO =        -0.00030773
  eigenvalues    EBANDS =      -170.86279808
  atomic energy  EATOM  =     22687.98115858
  Solvation  Ediel_sol  =         0.00000000
  ---------------------------------------------------
  free energy    TOTEN  =       -62.38012787 eV

  energy without entropy =      -62.37982015  energy(sigma->0) =      -62.37997401


--------------------------------------------------------------------------------------------------------




--------------------------------------- Iteration      1(  14)  ---------------------------------------


    POTLOK:  cpu time    0.0150: real time    0.0155
    SETDIJ:  cpu time    0.0027: real time    0.0027
     EDDAV:  cpu time   13.5330: real time   13.7999
       DOS:  cpu time    0.0041: real time    0.0041
    CHARGE:  cpu time    0.3846: real time    0.3846
    MIXING:  cpu time    0.0009: real time    0.0009
    --------------------------------------------
      LOOP:  cpu time   13.9404: real time   14.2078

 eigenvalue-minimisations  : 23890
 total energy-change (2. order) : 0.7657709E-02  (-0.3330251E-02)
 number of electron     181.9999836 magnetization 
 augmentation part      112.9279516 magnetization 

 Broyden mixing:
  rms(total) = 0.31728E-01    rms(broyden)= 0.31724E-01
  rms(prec ) = 0.38338E-01
  weight for this iteration     100.00

 eigenvalues of (default mixing * dielectric matrix)
  average eigenvalue GAMMA=   0.8007
  2.2830  1.3385  0.7015  0.7015  0.5954  0.5954  0.2559  0.4012  0.3339

 Free energy of the ion-electron system (eV)
  ---------------------------------------------------
  alpha Z        PSCENC =       582.73103390
  Ewald energy   TEWEN  =     13849.00974890
  -Hartree energ DENC   =    -36024.75054104
  -exchange      EXHF   =         0.00000000
  -V(xc)+E(xc)   XCENC  =       740.81295043
  PAW double counting   =     21369.93064879   -23096.51677771
  entropy T*S    EENTRO =        -0.00027948
  eigenvalues    EBANDS =      -171.57041254
  atomic energy  EATOM  =     22687.98115858
  Solvation  Ediel_sol  =         0.00000000
  ---------------------------------------------------
  free energy    TOTEN  =       -62.37247017 eV

  energy without entropy =      -62.37219069  energy(sigma->0) =      -62.37233043


--------------------------------------------------------------------------------------------------------




--------------------------------------- Iteration      1(  15)  ---------------------------------------


    POTLOK:  cpu time    0.0159: real time    0.0177
    SETDIJ:  cpu time    0.0028: real time    0.0028
     EDDAV:  cpu time   14.4943: real time   14.7213
       DOS:  cpu time    0.0040: real time    0.0040
    CHARGE:  cpu time    0.3852: real time    0.3890
    MIXING:  cpu time    0.0018: real time    0.0019
    --------------------------------------------
      LOOP:  cpu time   14.9041: real time   15.1367

 eigenvalue-minimisations  : 26200
 total energy-change (2. order) :-0.4482524E-03  (-0.1592544E-02)
 number of electron     181.9999837 magnetization 
 augmentation part      112.9380352 magnetization 

 Broyden mixing:
  rms(total) = 0.15209E-01    rms(broyden)= 0.15202E-01
  rms(prec ) = 0.20951E-01
  weight for this iteration     100.00

 eigenvalues of (default mixing * dielectric matrix)
  average eigenvalue GAMMA=   0.9021
  2.2155  2.2155  0.9464  0.9464  0.6175  0.6175  0.4916  0.2557  0.3902  0.3243

 Free energy of the ion-electron system (eV)
  ---------------------------------------------------
  alpha Z        PSCENC =       582.73103390
  Ewald energy   TEWEN  =     13849.00974890
  -Hartree energ DENC   =    -36025.98799481
  -exchange      EXHF   =         0.00000000
  -V(xc)+E(xc)   XCENC  =       740.84102149
  PAW double counting   =     21371.71189383   -23098.31829573
  entropy T*S    EENTRO =        -0.00028331
  eigenvalues    EBANDS =      -170.34120128
  atomic energy  EATOM  =     22687.98115858
  Solvation  Ediel_sol  =         0.00000000
  ---------------------------------------------------
  free energy    TOTEN  =       -62.37291842 eV

  energy without entropy =      -62.37263511  energy(sigma->0) =      -62.37277676


--------------------------------------------------------------------------------------------------------




--------------------------------------- Iteration      1(  16)  ---------------------------------------


    POTLOK:  cpu time    0.0154: real time    0.0157
    SETDIJ:  cpu time    0.0027: real time    0.0027
     EDDAV:  cpu time   13.2199: real time   13.5581
       DOS:  cpu time    0.0040: real time    0.0040
    CHARGE:  cpu time    0.3905: real time    0.3976
    MIXING:  cpu time    0.0010: real time    0.0012
    --------------------------------------------
      LOOP:  cpu time   13.6335: real time   13.9793

 eigenvalue-minimisations  : 23570
 total energy-change (2. order) : 0.3049057E-03  (-0.2635026E-03)
 number of electron     181.9999837 magnetization 
 augmentation part      112.9192911 magnetization 

 Broyden mixing:
  rms(total) = 0.47379E-02    rms(broyden)= 0.47306E-02
  rms(prec ) = 0.87464E-02
  weight for this iteration     100.00

 eigenvalues of (default mixing * dielectric matrix)
  average eigenvalue GAMMA=   0.9481
  2.8333  2.2588  0.9359  0.8438  0.8438  0.6252  0.6252  0.2558  0.4770  0.3915
  0.3391

 Free energy of the ion-electron system (eV)
  ---------------------------------------------------
  alpha Z        PSCENC =       582.73103390
  Ewald energy   TEWEN  =     13849.00974890
  -Hartree energ DENC   =    -36028.84408149
  -exchange      EXHF   =         0.00000000
  -V(xc)+E(xc)   XCENC  =       740.90023809
  PAW double counting   =     21374.42745811   -23101.15345213
  entropy T*S    EENTRO =        -0.00030074
  eigenvalues    EBANDS =      -167.42441673
  atomic energy  EATOM  =     22687.98115858
  Solvation  Ediel_sol  =         0.00000000
  ---------------------------------------------------
  free energy    TOTEN  =       -62.37261351 eV

  energy without entropy =      -62.37231277  energy(sigma->0) =      -62.37246314


--------------------------------------------------------------------------------------------------------




--------------------------------------- Iteration      1(  17)  ---------------------------------------


    POTLOK:  cpu time    0.0151: real time    0.0157
    SETDIJ:  cpu time    0.0027: real time    0.0027
     EDDAV:  cpu time   17.1011: real time   17.5280
       DOS:  cpu time    0.0040: real time    0.0040
    CHARGE:  cpu time    0.3889: real time    0.3945
    MIXING:  cpu time    0.0011: real time    0.0011
    --------------------------------------------
      LOOP:  cpu time   17.5129: real time   17.9460

 eigenvalue-minimisations  : 31890
 total energy-change (2. order) :-0.1637802E-03  (-0.1750881E-03)
 number of electron     181.9999837 magnetization 
 augmentation part      112.9113804 magnetization 

 Broyden mixing:
  rms(total) = 0.11062E-01    rms(broyden)= 0.11059E-01
  rms(prec ) = 0.14228E-01
  weight for this iteration     100.00

 eigenvalues of (default mixing * dielectric matrix)
  average eigenvalue GAMMA=   0.9459
  2.8815  2.3046  1.1171  0.9015  0.9015  0.6092  0.6092  0.5899  0.2558  0.4506
  0.3905  0.3394

 Free energy of the ion-electron system (eV)
  ---------------------------------------------------
  alpha Z        PSCENC =       582.73103390
  Ewald energy   TEWEN  =     13849.00974890
  -Hartree energ DENC   =    -36031.13481765
  -exchange      EXHF   =         0.00000000
  -V(xc)+E(xc)   XCENC  =       740.92560249
  PAW double counting   =     21376.96822329   -23103.71359764
  entropy T*S    EENTRO =        -0.00031134
  eigenvalues    EBANDS =      -165.13981783
  atomic energy  EATOM  =     22687.98115858
  Solvation  Ediel_sol  =         0.00000000
  ---------------------------------------------------
  free energy    TOTEN  =       -62.37277729 eV

  energy without entropy =      -62.37246595  energy(sigma->0) =      -62.37262162


--------------------------------------------------------------------------------------------------------




--------------------------------------- Iteration      1(  18)  ---------------------------------------


    POTLOK:  cpu time    0.0154: real time    0.0173
    SETDIJ:  cpu time    0.0027: real time    0.0028
     EDDAV:  cpu time   14.6668: real time   15.0899
       DOS:  cpu time    0.0041: real time    0.0041
    CHARGE:  cpu time    0.3867: real time    0.3898
    MIXING:  cpu time    0.0011: real time    0.0011
    --------------------------------------------
      LOOP:  cpu time   15.0768: real time   15.5050

 eigenvalue-minimisations  : 26660
 total energy-change (2. order) : 0.9445678E-04  (-0.4108758E-04)
 number of electron     181.9999837 magnetization 
 augmentation part      112.9135949 magnetization 

 Broyden mixing:
  rms(total) = 0.78151E-02    rms(broyden)= 0.78151E-02
  rms(prec ) = 0.97623E-02
  weight for this iteration     100.00

 eigenvalues of (default mixing * dielectric matrix)
  average eigenvalue GAMMA=   0.9840
  2.6431  2.6431  1.5801  0.9754  0.9754  0.8575  0.6183  0.6183  0.2558  0.4862
  0.3401  0.3991  0.3991

 Free energy of the ion-electron system (eV)
  ---------------------------------------------------
  alpha Z        PSCENC =       582.73103390
  Ewald energy   TEWEN  =     13849.00974890
  -Hartree energ DENC   =    -36031.53768673
  -exchange      EXHF   =         0.00000000
  -V(xc)+E(xc)   XCENC  =       740.91736424
  PAW double counting   =     21375.66075188   -23102.35070387
  entropy T*S    EENTRO =        -0.00030427
  eigenvalues    EBANDS =      -164.78404546
  atomic energy  EATOM  =     22687.98115858
  Solvation  Ediel_sol  =         0.00000000
  ---------------------------------------------------
  free energy    TOTEN  =       -62.37268284 eV

  energy without entropy =      -62.37237857  energy(sigma->0) =      -62.37253070


--------------------------------------------------------------------------------------------------------




--------------------------------------- Iteration      1(  19)  ---------------------------------------


    POTLOK:  cpu time    0.0150: real time    0.0155
    SETDIJ:  cpu time    0.0026: real time    0.0027
     EDDAV:  cpu time   15.4144: real time   15.7758
       DOS:  cpu time    0.0041: real time    0.0042
    CHARGE:  cpu time    0.3899: real time    0.3971
    MIXING:  cpu time    0.0012: real time    0.0012
    --------------------------------------------
      LOOP:  cpu time   15.8274: real time   16.1964

 eigenvalue-minimisations  : 28080
 total energy-change (2. order) :-0.2772395E-04  (-0.6594481E-04)
 number of electron     181.9999837 magnetization 
 augmentation part      112.9223841 magnetization 

 Broyden mixing:
  rms(total) = 0.30871E-02    rms(broyden)= 0.30820E-02
  rms(prec ) = 0.38262E-02
  weight for this iteration     100.00

 eigenvalues of (default mixing * dielectric matrix)
  average eigenvalue GAMMA=   1.0645
  3.5521  2.7059  1.8924  1.1251  0.9259  0.9259  0.6170  0.6170  0.6859  0.2558
  0.4645  0.3382  0.3879  0.4094

 Free energy of the ion-electron system (eV)
  ---------------------------------------------------
  alpha Z        PSCENC =       582.73103390
  Ewald energy   TEWEN  =     13849.00974890
  -Hartree energ DENC   =    -36031.90108097
  -exchange      EXHF   =         0.00000000
  -V(xc)+E(xc)   XCENC  =       740.89941843
  PAW double counting   =     21372.55380316   -23099.09985883
  entropy T*S    EENTRO =        -0.00029938
  eigenvalues    EBANDS =      -164.54663435
  atomic energy  EATOM  =     22687.98115858
  Solvation  Ediel_sol  =         0.00000000
  ---------------------------------------------------
  free energy    TOTEN  =       -62.37271056 eV

  energy without entropy =      -62.37241118  energy(sigma->0) =      -62.37256087


[...]
     22      -1.5483      2.00000
     23      -1.4656      2.00000
     24      -1.4070      2.00000
     25      -1.4000      2.00000
     26      -1.3662      2.00000
     27      -1.2860      2.00000
     28      -1.2357      2.00000
     29      -1.2063      2.00000
     30      -1.1915      2.00000
     31      -1.1289      2.00000
     32      -1.0773      2.00000
     33      -1.0258      2.00000
     34      -1.0144      2.00000
     35      -0.9718      2.00000
     36      -0.9364      2.00000
     37      -0.8438      2.00000
     38      -0.8136      2.00000
     39      -0.7692      2.00000
     40      -0.7527      2.00000
     41      -0.7392      2.00000
     42      -0.7122      2.00000
     43      -0.6971      2.00000
     44      -0.6720      2.00000
     45      -0.5994      2.00000
     46      -0.5852      2.00000
     47      -0.5685      2.00000
     48      -0.5192      2.00000
     49      -0.4946      2.00000
     50      -0.4539      2.00000
     51      -0.4116      2.00000
     52      -0.4050      2.00000
     53      -0.3670      2.00000
     54      -0.3374      2.00000
     55      -0.2969      2.00000
     56      -0.2535      2.00000
     57      -0.2222      2.00000
     58      -0.2049      2.00000
     59      -0.1880      2.00000
     60      -0.1473      2.00000
     61      -0.0846      2.00000
     62      -0.0472      2.00000
     63      -0.0099      2.00000
     64       0.0094      2.00000
     65       0.0300      2.00000
     66       0.0989      2.00000
     67       0.1385      2.00000
     68       0.1578      2.00000
     69       0.1854      2.00000
     70       0.2279      2.00000
     71       0.2477      2.00000
     72       0.2932      2.00000
     73       0.3205      2.00000
     74       0.3847      2.00000
     75       0.4079      2.00000
     76       0.4343      2.00000
     77       0.4696      2.00000
     78       0.4762      2.00000
     79       0.4828      2.00000
     80       0.5083      2.00000
     81       0.5521      2.00000
     82       0.5678      2.00000
     83       0.6035      2.00000
     84       0.6358      2.00000
     85       0.7123      2.00000
     86       0.7743      2.00000
     87       0.8815      2.00000
     88       0.8925      2.00000
     89       1.1507      2.00000
     90       1.4606      2.00000
     91       1.7624      2.00000
     92       2.4837      0.00000
     93       2.8122      0.00000
     94       3.2465      0.00000
     95       4.0903      0.00000
     96       4.4088      0.00000
     97       4.6114      0.00000
     98       4.7634      0.00000
     99       5.1289      0.00000
    100       5.4764      0.00000
    101       6.4118      0.00000
    102       7.0608      0.00000
    103       7.4391      0.00000
    104       7.5318      0.00000
    105       8.1199      0.00000
    106       8.4787      0.00000
    107       9.2810      0.00000
    108       9.3241      0.00000
    109       9.5387      0.00000
    110       9.7054      0.00000

 k-point    82 :      -0.1111    0.4444    0.5000
  band No.  band energies     occupation 
      1     -16.0452      2.00000
      2      -5.4603      2.00000
      3      -4.3242      2.00000
      4      -4.0148      2.00000
      5      -3.3395      2.00000
      6      -3.0463      2.00000
      7      -2.9526      2.00000
      8      -2.7593      2.00000
      9      -2.6401      2.00000
     10      -2.4332      2.00000
     11      -2.2800      2.00000
     12      -2.1647      2.00000
     13      -2.0999      2.00000
     14      -2.0382      2.00000
     15      -1.9925      2.00000
     16      -1.8866      2.00000
     17      -1.8320      2.00000
     18      -1.7747      2.00000
     19      -1.7472      2.00000
     20      -1.7239      2.00000
     21      -1.5917      2.00000
     22      -1.5300      2.00000
     23      -1.4653      2.00000
     24      -1.3978      2.00000
     25      -1.3868      2.00000
     26      -1.3509      2.00000
     27      -1.3061      2.00000
     28      -1.2613      2.00000
     29      -1.2004      2.00000
     30      -1.1806      2.00000
     31      -1.1289      2.00000
     32      -1.0742      2.00000
     33      -1.0404      2.00000
     34      -1.0138      2.00000
     35      -0.9820      2.00000
     36      -0.9338      2.00000
     37      -0.8706      2.00000
     38      -0.8449      2.00000
     39      -0.7836      2.00000
     40      -0.7592      2.00000
     41      -0.7353      2.00000
     42      -0.7162      2.00000
     43      -0.6754      2.00000
     44      -0.6180      2.00000
     45      -0.5816      2.00000
     46      -0.5690      2.00000
     47      -0.5631      2.00000
     48      -0.5276      2.00000
     49      -0.4896      2.00000
     50      -0.4785      2.00000
     51      -0.4317      2.00000
     52      -0.3899      2.00000
     53      -0.3697      2.00000
     54      -0.3594      2.00000
     55      -0.3427      2.00000
     56      -0.2640      2.00000
     57      -0.2311      2.00000
     58      -0.2049      2.00000
     59      -0.1754      2.00000
     60      -0.1637      2.00000
     61      -0.1044      2.00000
     62      -0.0526      2.00000
     63      -0.0103      2.00000
     64       0.0131      2.00000
     65       0.0372      2.00000
     66       0.0684      2.00000
     67       0.1182      2.00000
     68       0.1393      2.00000
     69       0.1607      2.00000
     70       0.1839      2.00000
     71       0.2188      2.00000
     72       0.2434      2.00000
     73       0.2733      2.00000
     74       0.3221      2.00000
     75       0.3676      2.00000
     76       0.3913      2.00000
     77       0.4093      2.00000
     78       0.4403      2.00000
     79       0.4916      2.00000
     80       0.5215      2.00000
     81       0.5406      2.00000
     82       0.5438      2.00000
     83       0.5834      2.00000
     84       0.6204      2.00000
     85       0.6478      2.00000
     86       0.7329      2.00000
     87       1.0319      2.00000
     88       1.0974      2.00000
     89       1.3610      2.00000
     90       1.5294      2.00000
     91       1.9686      2.00000
     92       2.3842      0.00000
     93       2.8957      0.00000
     94       3.1432      0.00000
     95       3.5906      0.00000
     96       3.9586      0.00000
     97       4.4618      0.00000
     98       4.7271      0.00000
     99       5.5908      0.00000
    100       5.9272      0.00000
    101       6.3650      0.00000
    102       7.1556      0.00000
    103       7.5906      0.00000
    104       7.6598      0.00000
    105       8.3637      0.00000
    106       8.6525      0.00000
    107       9.0276      0.00000
    108       9.1506      0.00000
    109       9.4833      0.00000
    110       9.7546      0.00000


--------------------------------------------------------------------------------------------------------


 soft charge-density along one line, spin component           1
         0         1         2         3         4         5         6         7         8         9
 total charge-density along one line
 
 pseudopotential strength for first ion, spin component:           1
 -6.649  -0.006  -0.000  -0.000   0.000  -1.891   0.004   0.000
 -0.006  -6.610  -0.000  -0.000  -0.000   0.004  -1.922   0.000
 -0.000  -0.000  -6.604  -0.002  -0.001   0.000   0.000  -1.928
 -0.000  -0.000  -0.002  -6.610   0.003   0.000   0.000   0.001
  0.000  -0.000  -0.001   0.003  -6.651  -0.000   0.000   0.001
 -1.891   0.004   0.000   0.000  -0.000   8.313  -0.003  -0.000
  0.004  -1.922   0.000   0.000   0.000  -0.003   8.335  -0.000
  0.000   0.000  -1.928   0.001   0.001  -0.000  -0.000   8.339
  0.000   0.000   0.001  -1.923  -0.002  -0.000  -0.000  -0.001
 -0.000   0.000   0.001  -0.002  -1.890   0.000  -0.000  -0.001
  0.000   0.000  -0.008   0.001  -0.000  -0.000  -0.000   0.003
  0.000   0.000  -0.015   0.001  -0.001  -0.000  -0.000   0.005
  0.001  -0.009   0.000   0.000   0.000  -0.001   0.009  -0.000
  0.000  -0.000  -0.008   0.001   0.000   0.000   0.000   0.008
 -0.000   0.000  -0.001  -0.009   0.001   0.000   0.000   0.000
  0.002  -0.010   0.000  -0.000   0.000  -0.001   0.011  -0.000
 -0.000  -0.000  -0.009   0.002   0.000   0.000   0.000   0.010
 -0.000  -0.000  -0.001  -0.010   0.001   0.000   0.000   0.001
 total augmentation occupancy for first ion, spin component:           1
  1.912  -0.007   0.000  -0.000   0.000  -0.015   0.005  -0.000   0.000   0.000   0.000  -0.000   0.007  -0.000   0.000   0.000
 -0.007   1.927  -0.000  -0.000  -0.000   0.005  -0.032   0.000  -0.000   0.000  -0.000  -0.000   0.009   0.000  -0.000  -0.010
  0.000  -0.000   1.928  -0.003  -0.002  -0.000   0.000  -0.027   0.001   0.000  -0.005   0.014  -0.000   0.053   0.000   0.000
 -0.000  -0.000  -0.003   1.927   0.005   0.000  -0.000   0.001  -0.031  -0.005  -0.004  -0.000   0.000   0.001   0.011   0.000
  0.000  -0.000  -0.002   0.005   1.908   0.000   0.000   0.000  -0.005  -0.014   0.004   0.000   0.000   0.001  -0.008   0.000
 -0.015   0.005  -0.000   0.000   0.000   0.014   0.000  -0.000  -0.000   0.000   0.000  -0.000   0.002   0.000  -0.000  -0.000
  0.005  -0.032   0.000  -0.000   0.000   0.000   0.010  -0.000  -0.000  -0.000  -0.000  -0.000   0.017  -0.000  -0.000  -0.001
 -0.000   0.000  -0.027   0.001   0.000  -0.000  -0.000   0.013  -0.000  -0.000  -0.043   0.002  -0.000   0.022   0.000  -0.000
  0.000  -0.000   0.001  -0.031  -0.005  -0.000  -0.000  -0.000   0.010  -0.000   0.001   0.000  -0.000  -0.000   0.016  -0.000
  0.000   0.000   0.000  -0.005  -0.014   0.000  -0.000  -0.000  -0.000   0.014  -0.001  -0.000  -0.000  -0.000  -0.002   0.000
  0.000  -0.000  -0.005  -0.004   0.004   0.000  -0.000  -0.043   0.001  -0.001   1.702  -0.136  -0.000   0.133  -0.002   0.000
 -0.000  -0.000   0.014  -0.000   0.000  -0.000  -0.000   0.002   0.000  -0.000  -0.136   0.017  -0.000  -0.022  -0.000   0.000
  0.007   0.009  -0.000   0.000   0.000   0.002   0.017  -0.000  -0.000  -0.000  -0.000  -0.000   0.211   0.000   0.000  -0.013
 -0.000   0.000   0.053   0.001   0.001   0.000  -0.000   0.022  -0.000  -0.000   0.133  -0.022   0.000   0.124   0.003  -0.000
  0.000  -0.000   0.000   0.011  -0.008  -0.000  -0.000   0.000   0.016  -0.002  -0.002  -0.000   0.000   0.003   0.205  -0.000
  0.000  -0.010   0.000   0.000   0.000  -0.000  -0.001  -0.000  -0.000   0.000   0.000   0.000  -0.013  -0.000  -0.000   0.001
  0.000   0.000  -0.014   0.001   0.000  -0.000  -0.000  -0.001  -0.000  -0.000  -0.019   0.002  -0.000  -0.008  -0.000   0.000
  0.000   0.000  -0.000  -0.010   0.001  -0.000  -0.000   0.000  -0.001   0.000   0.000  -0.000  -0.000  -0.000  -0.013   0.000


------------------------ aborting loop because EDIFF is reached ----------------------------------------


    CHARGE:  cpu time    0.3902: real time    0.3965
    FORLOC:  cpu time    0.0030: real time    0.0031
    FORNL :  cpu time    2.2752: real time    2.3513
    STRESS:  cpu time    6.8122: real time    6.9366
    FORCOR:  cpu time    0.0177: real time    0.0180
    FORHAR:  cpu time    0.0058: real time    0.0072
    MIXING:  cpu time    0.0005: real time    0.0005
    OFIELD:  cpu time    0.0000: real time    0.0000

  FORCE on cell =-STRESS in cart. coord.  units (eV):
  Direction    XX          YY          ZZ          XY          YZ          ZX
  --------------------------------------------------------------------------------------
  Alpha Z   582.73103   582.73103   582.73103
  Ewald   25878.02962 25878.01538-37782.88891     0.04166    -0.00615     0.00886
  Hartree 32379.80236 32379.79517-28602.87648     0.02235     0.00051     0.00410
  E(xc)   -1057.35377 -1057.35390 -1059.28674     0.00015     0.00000     0.00001
  Local  -60499.04389-60499.01065 64133.71374    -0.07293     0.00468    -0.01250
  n-local  -363.83494  -363.84036  -370.54016     0.00506    -0.00681     0.00388
  augment  1519.16347  1519.15413  1526.63386     0.00753     0.00037    -0.00020
  Kinetic  1560.64618  1560.64715  1572.03359    -0.00160    -0.00005    -0.00009
  Fock        0.00000     0.00000     0.00000     0.00000     0.00000     0.00000
  -------------------------------------------------------------------------------------
  Total       0.14005     0.13796    -0.48008     0.00220    -0.00745     0.00406
  in kB       0.66098     0.65113    -2.26582     0.01040    -0.03517     0.01918
  external pressure =       -0.32 kB  Pullay stress =        0.00 kB


 VOLUME and BASIS-vectors are now :
 -----------------------------------------------------------------------------
  energy-cutoff  :      500.00
  volume of cell :      339.47
      direct lattice vectors                 reciprocal lattice vectors
     4.427085287 -2.555978882  0.000000000     0.225882253  0.000000000  0.000000000
     0.000000000  5.111957764  0.000000000     0.112941127  0.195619770  0.000000000
     0.000000000  0.000000000 15.000000000     0.000000000  0.000000000  0.066666667

  length of vectors
     5.111957764  5.111957764 15.000000000     0.225882253  0.225882253  0.066666667


 FORCES acting on ions
    electron-ion (+dipol)            ewald-force                    non-local-force                 convergence-correction
 -----------------------------------------------------------------------------------------------
   -.643E-01 0.738E-04 0.256E+04   -.113E+00 -.887E-04 -.256E+04   0.136E+00 -.234E-04 -.217E+01   0.107E-03 0.602E-06 -.120E-02
   -.174E+01 0.301E+01 -.717E+03   0.199E+01 -.345E+01 0.717E+03   -.253E+00 0.439E+00 0.730E-01   0.294E-03 -.552E-03 0.128E-01
   -.504E+02 -.873E+02 -.234E+04   0.510E+02 0.884E+02 0.234E+04   -.627E+00 -.109E+01 -.165E+00   -.256E-03 -.462E-03 0.450E-02
   0.322E-01 0.557E-01 0.256E+04   0.567E-01 0.983E-01 -.256E+04   -.679E-01 -.118E+00 -.217E+01   -.533E-04 -.944E-04 -.120E-02
   0.232E+01 0.403E+01 0.927E+03   -.236E+01 -.410E+01 -.927E+03   0.460E-01 0.798E-01 -.580E+00   -.743E-04 -.137E-03 0.803E-02
   0.346E+01 -.125E-01 -.717E+03   -.397E+01 0.126E-01 0.717E+03   0.507E+00 0.928E-04 0.734E-01   -.575E-03 -.447E-04 0.128E-01
   0.728E-02 0.156E-01 -.237E+04   -.739E-02 -.144E-01 0.237E+04   0.950E-04 -.119E-02 0.558E+01   -.200E-04 -.139E-03 0.564E-02
   0.243E-02 -.680E-03 0.931E+03   -.239E-02 0.513E-03 -.930E+03   -.483E-04 0.168E-03 -.107E+01   -.492E-05 -.241E-05 0.841E-02
   -.631E-04 -.176E-03 0.256E+04   0.750E-04 0.953E-04 -.255E+04   -.553E-05 0.877E-04 -.186E+01   -.173E-05 -.935E-06 -.128E-02
   -.172E+01 -.300E+01 -.717E+03   0.198E+01 0.344E+01 0.717E+03   -.253E+00 -.439E+00 0.740E-01   0.299E-03 0.473E-03 0.129E-01
   -.504E+02 0.873E+02 -.234E+04   0.510E+02 -.884E+02 0.234E+04   -.627E+00 0.109E+01 -.162E+00   -.537E-03 0.107E-02 0.489E-02
   0.322E-01 -.556E-01 0.256E+04   0.566E-01 -.983E-01 -.256E+04   -.679E-01 0.118E+00 -.217E+01   -.525E-04 0.940E-04 -.120E-02
   0.232E+01 -.403E+01 0.927E+03   -.236E+01 0.409E+01 -.927E+03   0.463E-01 -.801E-01 -.580E+00   -.745E-04 0.138E-03 0.803E-02
   -.194E-02 0.717E-02 -.719E+03   0.194E-02 -.710E-02 0.717E+03   -.206E-04 -.400E-04 0.234E+01   0.186E-04 -.969E-05 0.119E-01
   0.101E+03 -.898E-02 -.234E+04   -.102E+03 0.871E-02 0.234E+04   0.125E+01 0.613E-03 -.165E+00   0.819E-03 0.523E-04 0.464E-02
   -.465E+01 -.746E-03 0.927E+03   0.473E+01 0.658E-03 -.927E+03   -.922E-01 0.874E-04 -.580E+00   0.154E-03 0.185E-06 0.803E-02
   -.488E-02 0.335E-03 -.164E+04   0.532E-02 -.843E-03 0.167E+04   0.692E-02 -.121E-01 -.262E+02   0.135E-03 0.131E-03 -.214E-02
 -----------------------------------------------------------------------------------------------
   0.660E-03 -.250E-04 0.296E+02   -.437E-14 -.501E-14 0.205E-11   0.621E-02 -.119E-01 -.297E+02   0.175E-03 0.518E-03 0.956E-01
 
 
 POSITION                                       TOTAL-FORCE (eV/Angst)
 -----------------------------------------------------------------------------------
      0.00000      0.00000      0.00000        -0.042347      0.000635      0.014015
      3.68271      1.28927      4.17903        -0.000320      0.000666     -0.000036
      2.23471      1.31462      6.32065        -0.000719      0.000403      0.000660
      2.21354      1.27799      0.00000         0.020590      0.036970      0.014012
      0.73785      3.83397      2.08695         0.006523      0.012666     -0.003101
      1.48868      2.55597      4.17903        -0.000384      0.000792      0.000032
     -0.00000      2.55597      6.17440        -0.000445      0.000555     -0.000022
      2.95139      2.55598      2.08695        -0.000427      0.000671     -0.085326
      0.00000      2.55598      0.00000        -0.000410      0.000678      0.058599
      3.68273     -1.28925      4.17901        -0.000502      0.000604      0.000229
      2.23464      3.79738      6.32073        -0.000726      0.001772      0.001209
      2.21354     -1.27799      0.00000         0.020537     -0.035607      0.014027
      0.73785      1.27799      2.08695         0.006572     -0.011407     -0.003076
      1.47569     -0.00001      4.14870        -0.000417      0.000695     -0.002858
      4.38482      2.55594      6.32068        -0.000305      0.001070      0.000591
      2.95139      0.00000      2.08695        -0.014303      0.000672     -0.003122
      1.47564      0.00021      7.45746         0.007081     -0.011837     -0.005834
 -----------------------------------------------------------------------------------
    total drift:                                0.007047     -0.011434     -0.026879


--------------------------------------------------------------------------------------------------------



  FREE ENERGIE OF THE ION-ELECTRON SYSTEM (eV)
  ---------------------------------------------------
  free  energy   TOTEN  =       -62.37347988 eV

  energy  without entropy=      -62.37319234  energy(sigma->0) =      -62.37333611
 
 d Force = 0.1674982E-06[ 0.118E-06, 0.217E-06]  d Energy = 0.1202861E-06 0.472E-07
 d Force =-0.1605964E-01[-0.161E-01,-0.161E-01]  d Ewald  =-0.1605964E-01-0.327E-10


--------------------------------------------------------------------------------------------------------


    POTLOK:  cpu time    0.0179: real time    0.0182


--------------------------------------------------------------------------------------------------------


 stress matrix after NEB project (eV)
      0.14005      0.00220      0.00406
      0.00220      0.13796     -0.00745
      0.00406     -0.00745     -0.48008
  FORCES: max atom, RMS     0.014976    0.003784
  FORCE total and by dimension    0.015603    0.011837
  Stress total and by dimension    0.518917    0.480078


--------------------------------------------------------------------------------------------------------


  
 reached required accuracy - stopping structural energy minimisation
     LOOP+:  cpu time   33.4860: real time   34.3127
    4ORBIT:  cpu time    0.0000: real time    0.0000

 total amount of memory used by VASP MPI-rank0   102062. kBytes
=======================================================================

   base      :      30000. kBytes
   nonlr-proj:       2753. kBytes
   fftplans  :       1456. kBytes
   grid      :       2255. kBytes
   one-center:         77. kBytes
   wavefun   :      65521. kBytes
 
  
  
 General timing and accounting informations for this job:
 ========================================================
  
                  Total CPU time used (sec):     2997.570
                            User time (sec):     2884.008
                          System time (sec):      113.562
                         Elapsed time (sec):     3072.530
  
                   Maximum memory used (kb):      227224.
                   Average memory used (kb):           0.
  
                          Minor page faults:        57917
                          Major page faults:           23
                 Voluntary context switches:         4080
