<?xml version="1.0" encoding="ISO-8859-1"?>
<modeling>
 <generator>
  <i name="program" type="string">vasp </i>
  <i name="version" type="string">5.4.4.18Apr17-6-g9f103f2a35  </i>
  <i name="subversion" type="string">(build Jun 16 2022 14:25:58) complex            parallel </i>
  <i name="platform" type="string">LinuxIFC </i>
  <i name="date" type="string">2025 05 07 </i>
  <i name="time" type="string">04:07:52 </i>
 </generator>
 <incar>
  <i type="string" name="SYSTEM"> TS</i>
  <i type="string" name="PREC">normal</i>
  <i type="string" name="ALGO"> Normal</i>
  <i type="int" name="IBRION">     2</i>
  <i name="EDIFF">      0.00000010</i>
  <i type="int" name="NSW">   600</i>
  <i type="int" name="ISIF">     2</i>
  <i type="int" name="ISYM">     0</i>
  <i name="ENCUT">    500.00000000</i>
  <i type="string" name="LREAL"> Auto</i>
  <i type="logical" name="LPLANE"> T  </i>
  <i type="int" name="ISMEAR">     0</i>
  <i name="SIGMA">      0.01000000</i>
  <i type="logical" name="LWAVE"> F  </i>
  <i type="logical" name="LCHARG"> F  </i>
  <v type="int" name="KPOINT_BSE">    -1     0     0     0</v>
 </incar>
 <structure name="primitive_cell" >
  <crystal>
   <varray name="basis" >
    <v>       4.42708529      -2.55597888       0.00000000 </v>
    <v>       0.00000000       5.11195776       0.00000000 </v>
    <v>       0.00000000       0.00000000      15.00000000 </v>
   </varray>
   <i name="volume">    339.46609504 </i>
   <varray name="rec_basis" >
    <v>       0.22588225       0.00000000       0.00000000 </v>
    <v>       0.11294113       0.19561977       0.00000000 </v>
    <v>       0.00000000       0.00000000       0.06666667 </v>
   </varray>
  </crystal>
  <varray name="positions" >
   <v>       0.00000000       0.00000000       0.00000000 </v>
   <v>       0.16666667      -0.16666667       0.13912987 </v>
   <v>      -0.33333333      -0.16666667       0.13912987 </v>
   <v>       0.16666667       0.33333333       0.13912987 </v>
   <v>      -0.50000000       0.00000000       0.00000000 </v>
   <v>       0.00000000      -0.50000000       0.00000000 </v>
   <v>      -0.50000000      -0.50000000       0.00000000 </v>
   <v>      -0.33333333       0.33333333       0.13912987 </v>
   <v>       0.33333333       0.16666667       0.27697670 </v>
   <v>      -0.16816300       0.16367400       0.27893398 </v>
   <v>      -0.16816300      -0.33183700       0.27893398 </v>
   <v>       0.33632600      -0.33183700       0.27893398 </v>
   <v>      -0.00999528      -0.00499763       0.42215032 </v>
   <v>       0.00000000      -0.50000000       0.41204331 </v>
   <v>      -0.49500237      -0.49000472       0.42215032 </v>
   <v>      -0.49500237      -0.00499763       0.42215032 </v>
   <v>       0.33333333       0.16666667       0.49767053 </v>
  </varray>
 </structure>
 <varray name="primitive_index" >
  <v type="int" >        1 </v>
  <v type="int" >        5 </v>
  <v type="int" >        8 </v>
  <v type="int" >       13 </v>
  <v type="int" >       12 </v>
  <v type="int" >        9 </v>
  <v type="int" >        4 </v>
  <v type="int" >       16 </v>
  <v type="int" >       14 </v>
  <v type="int" >       10 </v>
  <v type="int" >        2 </v>
  <v type="int" >        6 </v>
  <v type="int" >       15 </v>
  <v type="int" >        7 </v>
  <v type="int" >        3 </v>
  <v type="int" >       11 </v>
  <v type="int" >       17 </v>
 </varray>
 <kpoints>
  <generation param="Gamma">
   <v type="int" name="divisions">       9        9        2 </v>
   <v name="usershift">      0.00000000       0.00000000       0.00000000 </v>
   <v name="genvec1">      0.11111111       0.00000000       0.00000000 </v>
   <v name="genvec2">     -0.00000000       0.11111111       0.00000000 </v>
   <v name="genvec3">      0.00000000       0.00000000       0.50000000 </v>
   <v name="shift">      0.00000000       0.00000000       0.00000000 </v>
  </generation>
  <varray name="kpointlist" >
   <v>       0.00000000       0.00000000       0.00000000 </v>
   <v>       0.11111111       0.00000000       0.00000000 </v>
   <v>       0.22222222       0.00000000       0.00000000 </v>
   <v>       0.33333333       0.00000000       0.00000000 </v>
   <v>       0.44444444       0.00000000       0.00000000 </v>
   <v>      -0.00000000       0.11111111       0.00000000 </v>
   <v>       0.11111111       0.11111111       0.00000000 </v>
   <v>       0.22222222       0.11111111       0.00000000 </v>
   <v>       0.33333333       0.11111111       0.00000000 </v>
   <v>       0.44444444       0.11111111       0.00000000 </v>
   <v>      -0.44444444       0.11111111       0.00000000 </v>
   <v>      -0.33333333       0.11111111       0.00000000 </v>
   <v>      -0.22222222       0.11111111       0.00000000 </v>
   <v>      -0.11111111       0.11111111       0.00000000 </v>
   <v>       0.00000000       0.22222222       0.00000000 </v>
   <v>       0.11111111       0.22222222       0.00000000 </v>
   <v>       0.22222222       0.22222222       0.00000000 </v>
   <v>       0.33333333       0.22222222       0.00000000 </v>
   <v>       0.44444444       0.22222222       0.00000000 </v>
   <v>      -0.44444444       0.22222222       0.00000000 </v>
   <v>      -0.33333333       0.22222222       0.00000000 </v>
   <v>      -0.22222222       0.22222222       0.00000000 </v>
   <v>      -0.11111111       0.22222222       0.00000000 </v>
   <v>       0.00000000       0.33333333       0.00000000 </v>
   <v>       0.11111111       0.33333333       0.00000000 </v>
   <v>       0.22222222       0.33333333       0.00000000 </v>
   <v>       0.33333333       0.33333333       0.00000000 </v>
   <v>       0.44444444       0.33333333       0.00000000 </v>
   <v>      -0.44444444       0.33333333       0.00000000 </v>
   <v>      -0.33333333       0.33333333       0.00000000 </v>
   <v>      -0.22222222       0.33333333       0.00000000 </v>
   <v>      -0.11111111       0.33333333       0.00000000 </v>
   <v>       0.00000000       0.44444444       0.00000000 </v>
   <v>       0.11111111       0.44444444       0.00000000 </v>
   <v>       0.22222222       0.44444444       0.00000000 </v>
   <v>       0.33333333       0.44444444       0.00000000 </v>
   <v>       0.44444444       0.44444444       0.00000000 </v>
   <v>      -0.44444444       0.44444444       0.00000000 </v>
   <v>      -0.33333333       0.44444444       0.00000000 </v>
   <v>      -0.22222222       0.44444444       0.00000000 </v>
   <v>      -0.11111111       0.44444444       0.00000000 </v>
   <v>       0.00000000       0.00000000       0.50000000 </v>
   <v>       0.11111111       0.00000000       0.50000000 </v>
   <v>       0.22222222       0.00000000       0.50000000 </v>
   <v>       0.33333333       0.00000000       0.50000000 </v>
   <v>       0.44444444       0.00000000       0.50000000 </v>
   <v>      -0.00000000       0.11111111       0.50000000 </v>
   <v>       0.11111111       0.11111111       0.50000000 </v>
   <v>       0.22222222       0.11111111       0.50000000 </v>
   <v>       0.33333333       0.11111111       0.50000000 </v>
   <v>       0.44444444       0.11111111       0.50000000 </v>
   <v>      -0.44444444       0.11111111       0.50000000 </v>
   <v>      -0.33333333       0.11111111       0.50000000 </v>
   <v>      -0.22222222       0.11111111       0.50000000 </v>
   <v>      -0.11111111       0.11111111       0.50000000 </v>
   <v>       0.00000000       0.22222222       0.50000000 </v>
   <v>       0.11111111       0.22222222       0.50000000 </v>
   <v>       0.22222222       0.22222222       0.50000000 </v>
   <v>       0.33333333       0.22222222       0.50000000 </v>
   <v>       0.44444444       0.22222222       0.50000000 </v>
   <v>      -0.44444444       0.22222222       0.50000000 </v>
   <v>      -0.33333333       0.22222222       0.50000000 </v>
   <v>      -0.22222222       0.22222222       0.50000000 </v>
   <v>      -0.11111111       0.22222222       0.50000000 </v>
   <v>       0.00000000       0.33333333       0.50000000 </v>
   <v>       0.11111111       0.33333333       0.50000000 </v>
   <v>       0.22222222       0.33333333       0.50000000 </v>
   <v>       0.33333333       0.33333333       0.50000000 </v>
   <v>       0.44444444       0.33333333       0.50000000 </v>
   <v>      -0.44444444       0.33333333       0.50000000 </v>
   <v>      -0.33333333       0.33333333       0.50000000 </v>
   <v>      -0.22222222       0.33333333       0.50000000 </v>
   <v>      -0.11111111       0.33333333       0.50000000 </v>
   <v>       0.00000000       0.44444444       0.50000000 </v>
   <v>       0.11111111       0.44444444       0.50000000 </v>
   <v>       0.22222222       0.44444444       0.50000000 </v>
   <v>       0.33333333       0.44444444       0.50000000 </v>
   <v>       0.44444444       0.44444444       0.50000000 </v>
   <v>      -0.44444444       0.44444444       0.50000000 </v>
   <v>      -0.33333333       0.44444444       0.50000000 </v>
   <v>      -0.22222222       0.44444444       0.50000000 </v>
   <v>      -0.11111111       0.44444444       0.50000000 </v>
  </varray>
  <varray name="weights" >
   <v>       0.00617284 </v>
   <v>       0.01234568 </v>
   <v>       0.01234568 </v>
   <v>       0.01234568 </v>
   <v>       0.01234568 </v>
   <v>       0.01234568 </v>
   <v>       0.01234568 </v>
   <v>       0.01234568 </v>
   <v>       0.01234568 </v>
   <v>       0.01234568 </v>
   <v>       0.01234568 </v>
   <v>       0.01234568 </v>
   <v>       0.01234568 </v>
   <v>       0.01234568 </v>
   <v>       0.01234568 </v>
   <v>       0.01234568 </v>
   <v>       0.01234568 </v>
   <v>       0.01234568 </v>
   <v>       0.01234568 </v>
   <v>       0.01234568 </v>
   <v>       0.01234568 </v>
   <v>       0.01234568 </v>
   <v>       0.01234568 </v>
   <v>       0.01234568 </v>
   <v>       0.01234568 </v>
   <v>       0.01234568 </v>
   <v>       0.01234568 </v>
   <v>       0.01234568 </v>
   <v>       0.01234568 </v>
   <v>       0.01234568 </v>
   <v>       0.01234568 </v>
   <v>       0.01234568 </v>
   <v>       0.01234568 </v>
   <v>       0.01234568 </v>
   <v>       0.01234568 </v>
   <v>       0.01234568 </v>
   <v>       0.01234568 </v>
   <v>       0.01234568 </v>
   <v>       0.01234568 </v>
   <v>       0.01234568 </v>
   <v>       0.01234568 </v>
   <v>       0.00617284 </v>
   <v>       0.01234568 </v>
   <v>       0.01234568 </v>
   <v>       0.01234568 </v>
   <v>       0.01234568 </v>
   <v>       0.01234568 </v>
   <v>       0.01234568 </v>
   <v>       0.01234568 </v>
   <v>       0.01234568 </v>
   <v>       0.01234568 </v>
   <v>       0.01234568 </v>
   <v>       0.01234568 </v>
   <v>       0.01234568 </v>
   <v>       0.01234568 </v>
   <v>       0.01234568 </v>
   <v>       0.01234568 </v>
   <v>       0.01234568 </v>
   <v>       0.01234568 </v>
   <v>       0.01234568 </v>
   <v>       0.01234568 </v>
   <v>       0.01234568 </v>
   <v>       0.01234568 </v>
   <v>       0.01234568 </v>
   <v>       0.01234568 </v>
   <v>       0.01234568 </v>
   <v>       0.01234568 </v>
   <v>       0.01234568 </v>
   <v>       0.01234568 </v>
   <v>       0.01234568 </v>
   <v>       0.01234568 </v>
   <v>       0.01234568 </v>
   <v>       0.01234568 </v>
   <v>       0.01234568 </v>
   <v>       0.01234568 </v>
   <v>       0.01234568 </v>
   <v>       0.01234568 </v>
   <v>       0.01234568 </v>
   <v>       0.01234568 </v>
   <v>       0.01234568 </v>
   <v>       0.01234568 </v>
   <v>       0.01234568 </v>
  </varray>
 </kpoints>
 <parameters>
  <separator name="general" >
   <i type="string" name="SYSTEM">TS</i>
   <i type="logical" name="LCOMPAT"> F  </i>
  </separator>
  <separator name="electronic" >
   <i type="string" name="PREC">normal</i>
   <i name="ENMAX">    500.00000000</i>
   <i name="ENAUG">    605.39200000</i>
   <i name="EDIFF">      0.00000010</i>
   <i type="int" name="IALGO">    38</i>
   <i type="int" name="IWAVPR">    11</i>
   <i type="int" name="NBANDS">   110</i>
   <i name="NELECT">    182.00000000</i>
   <i type="int" name="TURBO">     0</i>
   <i type="int" name="IRESTART">     0</i>
   <i type="int" name="NREBOOT">     0</i>
   <i type="int" name="NMIN">     0</i>
   <i name="EREF">      0.00000000</i>
   <separator name="electronic smearing" >
    <i type="int" name="ISMEAR">     0</i>
    <i name="SIGMA">      0.01000000</i>
    <i name="KSPACING">      0.50000000</i>
    <i type="logical" name="KGAMMA"> T  </i>
   </separator>
   <separator name="electronic projectors" >
    <i type="logical" name="LREAL"> T  </i>
    <v name="ROPT">     -0.00050000     -0.00050000</v>
    <i type="int" name="LMAXPAW">  -100</i>
    <i type="int" name="LMAXMIX">     2</i>
    <i type="logical" name="NLSPLINE"> F  </i>
   </separator>
   <separator name="electronic startup" >
    <i type="int" name="ISTART">     0</i>
    <i type="int" name="ICHARG">     2</i>
    <i type="int" name="INIWAV">     1</i>
   </separator>
   <separator name="electronic spin" >
    <i type="int" name="ISPIN">     1</i>
    <i type="logical" name="LNONCOLLINEAR"> F  </i>
    <v name="MAGMOM">      1.00000000      1.00000000      1.00000000      1.00000000      1.00000000      1.00000000      1.00000000      1.00000000      1.00000000      1.00000000      1.00000000      1.00000000      1.00000000      1.00000000      1.00000000      1.00000000      1.00000000</v>
    <i name="NUPDOWN">     -1.00000000</i>
    <i type="logical" name="LSORBIT"> F  </i>
    <v name="SAXIS">      0.00000000      0.00000000      1.00000000</v>
    <i type="logical" name="LSPIRAL"> F  </i>
    <v name="QSPIRAL">      0.00000000      0.00000000      0.00000000</v>
    <i type="logical" name="LZEROZ"> F  </i>
   </separator>
   <separator name="electronic exchange-correlation" >
    <i type="logical" name="LASPH"> F  </i>
    <i type="logical" name="LMETAGGA"> F  </i>
   </separator>
   <separator name="electronic convergence" >
    <i type="int" name="NELM">    60</i>
    <i type="int" name="NELMDL">     0</i>
    <i type="int" name="NELMIN">     2</i>
    <i name="ENINI">    500.00000000</i>
    <separator name="electronic convergence detail" >
     <i type="logical" name="LDIAG"> T  </i>
     <i type="logical" name="LSUBROT"> F  </i>
     <i name="WEIMIN">      0.00100000</i>
     <i name="EBREAK">      0.00000000</i>
     <i name="DEPER">      0.30000000</i>
     <i type="int" name="NRMM">     4</i>
     <i name="TIME">      0.40000000</i>
    </separator>
   </separator>
   <separator name="electronic mixer" >
    <i name="AMIX">      0.40000000</i>
    <i name="BMIX">      1.00000000</i>
    <i name="AMIN">      0.10000000</i>
    <i name="AMIX_MAG">      1.60000000</i>
    <i name="BMIX_MAG">      1.00000000</i>
    <separator name="electronic mixer details" >
     <i type="int" name="IMIX">     4</i>
     <i type="logical" name="MIXFIRST"> F  </i>
     <i type="int" name="MAXMIX">   -45</i>
     <i name="WC">    100.00000000</i>
     <i type="int" name="INIMIX">     1</i>
     <i type="int" name="MIXPRE">     1</i>
     <i type="int" name="MREMOVE">     5</i>
    </separator>
   </separator>
   <separator name="electronic dipolcorrection" >
    <i type="logical" name="LDIPOL"> F  </i>
    <i type="logical" name="LMONO"> F  </i>
    <i type="int" name="IDIPOL">     0</i>
    <i name="EPSILON">      1.00000000</i>
    <v name="DIPOL">   -100.00000000   -100.00000000   -100.00000000</v>
    <i name="EFIELD">      0.00000000</i>
   </separator>
  </separator>
  <separator name="grids" >
   <i type="int" name="NGX">    28</i>
   <i type="int" name="NGY">    28</i>
   <i type="int" name="NGZ">    84</i>
   <i type="int" name="NGXF">    56</i>
   <i type="int" name="NGYF">    56</i>
   <i type="int" name="NGZF">   168</i>
   <i type="logical" name="ADDGRID"> F  </i>
  </separator>
  <separator name="ionic" >
   <i type="int" name="NSW">   600</i>
   <i type="int" name="IBRION">     2</i>
   <i type="int" name="MDALGO">     0</i>
   <i type="int" name="ISIF">     2</i>
   <i name="PSTRESS">      0.00000000</i>
   <i name="EDIFFG">      0.00000100</i>
   <i type="int" name="NFREE">     1</i>
   <i name="POTIM">      0.50000000</i>
   <i name="SMASS">     -3.00000000</i>
   <i name="SCALEE">      1.00000000</i>
  </separator>
  <separator name="ionic md" >
   <i name="TEBEG">      0.00010000</i>
   <i name="TEEND">      0.00010000</i>
   <i type="int" name="NBLOCK">     1</i>
   <i type="int" name="KBLOCK">   600</i>
   <i type="int" name="NPACO">   256</i>
   <i name="APACO">     16.00000000</i>
  </separator>
  <separator name="symmetry" >
   <i type="int" name="ISYM">     0</i>
   <i name="SYMPREC">      0.00001000</i>
  </separator>
  <separator name="dos" >
   <i type="int" name="LORBIT">     0</i>
   <v name="RWIGS">     -1.00000000     -1.00000000</v>
   <i type="int" name="NEDOS">   301</i>
   <i name="EMIN">     10.00000000</i>
   <i name="EMAX">    -10.00000000</i>
   <i name="EFERMI">      0.00000000</i>
  </separator>
  <separator name="writing" >
   <i type="int" name="NWRITE">     2</i>
   <i type="logical" name="LWAVE"> F  </i>
   <i type="logical" name="LDOWNSAMPLE"> F  </i>
   <i type="logical" name="LCHARG"> F  </i>
   <i type="logical" name="LPARD"> F  </i>
   <i type="logical" name="LVTOT"> F  </i>
   <i type="logical" name="LVHAR"> F  </i>
   <i type="logical" name="LELF"> F  </i>
   <i type="logical" name="LOPTICS"> F  </i>
   <v name="STM">      0.00000000      0.00000000      0.00000000      0.00000000      0.00000000      0.00000000      0.00000000</v>
  </separator>
  <separator name="performance" >
   <i type="int" name="NPAR">     5</i>
   <i type="int" name="NSIM">     4</i>
   <i type="int" name="NBLK">    -1</i>
   <i type="logical" name="LPLANE"> T  </i>
   <i type="logical" name="LSCALAPACK"> T  </i>
   <i type="logical" name="LSCAAWARE"> F  </i>
   <i type="logical" name="LSCALU"> F  </i>
   <i type="logical" name="LASYNC"> F  </i>
   <i type="logical" name="LORBITALREAL"> F  </i>
  </separator>
  <separator name="miscellaneous" >
   <i type="int" name="IDIOT">     3</i>
   <i type="int" name="ISPECIAL">     0</i>
   <i type="logical" name="LMUSIC"> F  </i>
   <v name="POMASS">     63.54600000     16.00000000</v>
   <v name="DARWINR">      0.00000000      0.00000000</v>
   <v name="DARWINV">      1.00000000      1.00000000</v>
   <i type="logical" name="LCORR"> T  </i>
  </separator>
  <i type="logical" name="GGA_COMPAT"> T  </i>
  <i type="logical" name="LBERRY"> F  </i>
  <i type="int" name="ICORELEVEL">     0</i>
  <i type="logical" name="LDAU"> F  </i>
  <i type="int" name="I_CONSTRAINED_M">     0</i>
  <separator name="electronic exchange-correlation" >
   <i type="string" name="GGA">--</i>
   <i type="int" name="VOSKOWN">     0</i>
   <i type="logical" name="LHFCALC"> F  </i>
   <i type="string" name="PRECFOCK"></i>
   <i type="logical" name="LSYMGRAD"> F  </i>
   <i type="logical" name="LHFONE"> F  </i>
   <i type="logical" name="LRHFCALC"> F  </i>
   <i type="logical" name="LTHOMAS"> F  </i>
   <i type="logical" name="LMODELHF"> F  </i>
   <i name="ENCUT4O">     -1.00000000</i>
   <i type="int" name="EXXOEP">     0</i>
   <i type="int" name="FOURORBIT">     0</i>
   <i name="AEXX">      0.00000000</i>
   <i name="HFALPHA">      0.00000000</i>
   <i name="MCALPHA">      0.00000000</i>
   <i name="ALDAX">      1.00000000</i>
   <i name="AGGAX">      1.00000000</i>
   <i name="ALDAC">      1.00000000</i>
   <i name="AGGAC">      1.00000000</i>
   <i type="int" name="NKREDX">     1</i>
   <i type="int" name="NKREDY">     1</i>
   <i type="int" name="NKREDZ">     1</i>
   <i type="logical" name="SHIFTRED"> F  </i>
   <i type="logical" name="ODDONLY"> F  </i>
   <i type="logical" name="EVENONLY"> F  </i>
   <i type="int" name="LMAXFOCK">     0</i>
   <i type="int" name="NMAXFOCKAE">     0</i>
   <i type="logical" name="LFOCKAEDFT"> F  </i>
   <i name="HFSCREEN">      0.00000000</i>
   <i name="HFSCREENC">      0.00000000</i>
   <i type="int" name="NBANDSGWLOW">     0</i>
  </separator>
  <separator name="vdW DFT" >
   <i type="logical" name="LUSE_VDW"> F  </i>
   <i name="Zab_VDW">     -0.84910000</i>
   <i name="PARAM1">      0.12340000</i>
   <i name="PARAM2">      1.00000000</i>
   <i name="PARAM3">      0.00000000</i>
  </separator>
  <separator name="model GW" >
   <i type="int" name="MODEL_GW">     0</i>
   <i name="MODEL_EPS0">     11.98115630</i>
   <i name="MODEL_ALPHA">      1.00000000</i>
  </separator>
  <separator name="linear response parameters" >
   <i type="logical" name="LEPSILON"> F  </i>
   <i type="logical" name="LRPA"> F  </i>
   <i type="logical" name="LNABLA"> F  </i>
   <i type="logical" name="LVEL"> F  </i>
   <i type="int" name="KINTER">     0</i>
   <i name="CSHIFT">      0.10000000</i>
   <i name="OMEGAMAX">     -1.00000000</i>
   <i name="DEG_THRESHOLD">      0.00200000</i>
   <i name="RTIME">     -0.10000000</i>
   <i name="WPLASMAI">      0.00000000</i>
   <v name="DFIELD">      0.00000000      0.00000000      0.00000000</v>
   <v name="WPLASMA">      0.00000000      0.00000000      0.00000000      0.00000000      0.00000000      0.00000000      0.00000000      0.00000000      0.00000000</v>
  </separator>
  <separator name="orbital magnetization" >
   <i type="logical" name="NUCIND"> F  </i>
   <v name="MAGPOS">      0.00000000      0.00000000      0.00000000</v>
   <i type="logical" name="LNICSALL"> T  </i>
   <i type="logical" name="ORBITALMAG"> F  </i>
   <i type="logical" name="LMAGBLOCH"> F  </i>
   <i type="logical" name="LCHIMAG"> F  </i>
   <i type="logical" name="LGAUGE"> T  </i>
   <i type="int" name="MAGATOM">     0</i>
   <v name="MAGDIPOL">      0.00000000      0.00000000      0.00000000</v>
   <v name="AVECCONST">      0.00000000      0.00000000      0.00000000</v>
  </separator>
  <separator name="response functions" >
   <i type="logical" name="LADDER"> F  </i>
   <i type="logical" name="LRPAFORCE"> F  </i>
   <i type="logical" name="LFXC"> F  </i>
   <i type="logical" name="LHARTREE"> T  </i>
   <i type="int" name="IBSE">     0</i>
   <v type="int" name="KPOINT">    -1     0     0     0</v>
   <i type="logical" name="LTCTE"> F  </i>
   <i type="logical" name="LTETE"> F  </i>
   <i type="logical" name="LTRIPLET"> F  </i>
   <i type="logical" name="LFXCEPS"> F  </i>
   <i type="logical" name="LFXHEG"> F  </i>
   <i type="int" name="NATURALO">     2</i>
   <i type="logical" name="L2ORDER"> F  </i>
   <i type="logical" name="LMP2LT"> F  </i>
   <i type="logical" name="LUSEW"> F  </i>
   <i name="ENCUTGW">     -2.00000000</i>
   <i name="ENCUTGWSOFT">     -2.00000000</i>
   <i name="ENCUTLF">     -1.00000000</i>
   <i type="int" name="LMAXMP2">    -1</i>
   <i name="SCISSOR">      0.00000000</i>
   <i type="int" name="NOMEGA">     0</i>
   <i type="int" name="NOMEGAR">     0</i>
   <i type="int" name="NBANDSGW">    -1</i>
   <i type="int" name="NBANDSO">    -1</i>
   <i type="int" name="NBANDSV">    -1</i>
   <i type="int" name="NELM">     1</i>
   <i type="int" name="NELMHF">     1</i>
   <i type="int" name="DIM">     3</i>
   <i type="int" name="ANTIRES">     0</i>
   <i name="OMEGAMAX">    -30.00000000</i>
   <i name="OMEGAMIN">    -30.00000000</i>
   <i name="OMEGATL">   -200.00000000</i>
   <i type="int" name="OMEGAGRID">   140</i>
   <i name="CSHIFT">     -0.10000000</i>
   <i type="logical" name="SELFENERGY"> F  </i>
   <i type="logical" name="LSPECTRAL"> F  </i>
   <i type="logical" name="LSPECTRALGW"> F  </i>
   <i type="logical" name="LSINGLES"> F  </i>
   <i type="logical" name="LFERMIGW"> F  </i>
   <i type="logical" name="ODDONLYGW"> F  </i>
   <i type="logical" name="EVENONLYGW"> F  </i>
   <i type="int" name="NKREDLFX">     1</i>
   <i type="int" name="NKREDLFY">     1</i>
   <i type="int" name="NKREDLFZ">     1</i>
   <i type="int" name="MAXMEM">  2800</i>
   <i type="int" name="TELESCOPE">     0</i>
   <i type="int" name="TAUPAR">     1</i>
   <i type="int" name="OMEGAPAR">    -1</i>
   <i name="LAMBDA">      1.00000000</i>
  </separator>
  <separator name="External order field" >
   <i name="OFIELD_KAPPA">      0.00000000</i>
   <v name="OFIELD_K">      0.00000000      0.00000000      0.00000000</v>
   <i name="OFIELD_Q6_NEAR">      0.00000000</i>
   <i name="OFIELD_Q6_FAR">      0.00000000</i>
   <i name="OFIELD_A">      0.00000000</i>
  </separator>
  <separator name="solvation model" >
   <i type="logical" name="LSOL"> F  </i>
  </separator>
 </parameters>
 <atominfo>
  <atoms>      17 </atoms>
  <types>       2 </types>
  <array name="atoms" >
   <dimension dim="1">ion</dimension>
   <field type="string">element</field>
   <field type="int">atomtype</field>
   <set>
    <rc><c>Cu</c><c>   1</c></rc>
    <rc><c>Cu</c><c>   1</c></rc>
    <rc><c>Cu</c><c>   1</c></rc>
    <rc><c>Cu</c><c>   1</c></rc>
    <rc><c>Cu</c><c>   1</c></rc>
    <rc><c>Cu</c><c>   1</c></rc>
    <rc><c>Cu</c><c>   1</c></rc>
    <rc><c>Cu</c><c>   1</c></rc>
    <rc><c>Cu</c><c>   1</c></rc>
    <rc><c>Cu</c><c>   1</c></rc>
    <rc><c>Cu</c><c>   1</c></rc>
    <rc><c>Cu</c><c>   1</c></rc>
    <rc><c>Cu</c><c>   1</c></rc>
    <rc><c>Cu</c><c>   1</c></rc>
    <rc><c>Cu</c><c>   1</c></rc>
    <rc><c>Cu</c><c>   1</c></rc>
    <rc><c>O </c><c>   2</c></rc>
   </set>
  </array>
  <array name="atomtypes" >
   <dimension dim="1">type</dimension>
   <field type="int">atomspertype</field>
   <field type="string">element</field>
   <field>mass</field>
   <field>valence</field>
   <field type="string">pseudopotential</field>
   <set>
    <rc><c>  16</c><c>Cu</c><c>     63.54600000</c><c>     11.00000000</c><c>  PAW_PBE Cu 22Jun2005                  </c></rc>
    <rc><c>   1</c><c>O </c><c>     16.00000000</c><c>      6.00000000</c><c>  PAW_PBE O 08Apr2002                   </c></rc>
   </set>
  </array>
 </atominfo>
 <structure name="initialpos" >
  <crystal>
   <varray name="basis" >
    <v>       4.42708529      -2.55597888       0.00000000 </v>
    <v>       0.00000000       5.11195776       0.00000000 </v>
    <v>       0.00000000       0.00000000      15.00000000 </v>
   </varray>
   <i name="volume">    339.46609504 </i>
   <varray name="rec_basis" >
    <v>       0.22588225       0.00000000       0.00000000 </v>
    <v>       0.11294113       0.19561977       0.00000000 </v>
    <v>       0.00000000       0.00000000       0.06666667 </v>
   </varray>
  </crystal>
  <varray name="positions" >
   <v>       0.00000000       0.00000000       0.00000000 </v>
   <v>       0.83183700       0.66816300       0.27893398 </v>
   <v>       0.50499763       0.50999528       0.42215032 </v>
   <v>       0.50000000       0.50000000       0.00000000 </v>
   <v>       0.16666667       0.83333333       0.13912987 </v>
   <v>       0.33632600       0.66816300       0.27893398 </v>
   <v>       0.00000000       0.50000000       0.41204331 </v>
   <v>       0.66666667       0.83333333       0.13912987 </v>
   <v>       0.00000000       0.50000000       0.00000000 </v>
   <v>       0.83183700       0.16367400       0.27893398 </v>
   <v>       0.50499763       0.99500237       0.42215032 </v>
   <v>       0.50000000       0.00000000       0.00000000 </v>
   <v>       0.16666667       0.33333333       0.13912987 </v>
   <v>       0.33333333       0.16666667       0.27697670 </v>
   <v>       0.99000472       0.99500237       0.42215032 </v>
   <v>       0.66666667       0.33333333       0.13912987 </v>
   <v>       0.33333333       0.16666667       0.49767053 </v>
  </varray>
  <varray name="selective"  type="logical" >
   <v type="logical" >  F  F  F </v>
   <v type="logical" >  T  T  T </v>
   <v type="logical" >  T  T  T </v>
   <v type="logical" >  F  F  F </v>
   <v type="logical" >  F  F  F </v>
   <v type="logical" >  T  T  T </v>
   <v type="logical" >  T  T  T </v>
   <v type="logical" >  F  F  F </v>
   <v type="logical" >  F  F  F </v>
   <v type="logical" >  T  T  T </v>
   <v type="logical" >  T  T  T </v>
   <v type="logical" >  F  F  F </v>
   <v type="logical" >  F  F  F </v>
   <v type="logical" >  T  T  T </v>
   <v type="logical" >  T  T  T </v>
   <v type="logical" >  F  F  F </v>
   <v type="logical" >  T  T  T </v>
  </varray>
  <nose>
   <v>      -3.00000000       0.00000000       0.00010000       0.00010000 </v>
  </nose>
 </structure>
 <calculation>
  <scstep>
   <time name="dav">   10.81   11.11</time>
   <time name="total">   10.84   11.18</time>
   <energy>
    <i name="alphaZ">    582.73103390 </i>
    <i name="ewald">  13849.00974890 </i>
    <i name="hartreedc"> -36332.41753967 </i>
    <i name="XCdc">    756.59415193 </i>
    <i name="pawpsdc">  19997.85603494 </i>
    <i name="pawaedc"> -21693.12362158 </i>
    <i name="eentropy">     -0.00046510 </i>
    <i name="bandstr">   1983.38932060 </i>
    <i name="atom">  22687.98115858 </i>
    <i name="e_fr_energy">   1832.01982251 </i>
    <i name="e_wo_entrp">   1832.02028761 </i>
    <i name="e_0_energy">   1832.02005506 </i>
   </energy>
  </scstep>
  <scstep>
   <time name="dav">   10.85   11.11</time>
   <time name="total">   10.85   11.12</time>
   <energy>
    <i name="e_fr_energy">    243.14150651 </i>
    <i name="e_wo_entrp">    243.14178710 </i>
    <i name="e_0_energy">    243.14164681 </i>
   </energy>
  </scstep>
  <scstep>
   <time name="dav">   12.37   12.68</time>
   <time name="total">   12.38   12.69</time>
   <energy>
    <i name="e_fr_energy">    -48.45371506 </i>
    <i name="e_wo_entrp">    -48.45308671 </i>
    <i name="e_0_energy">    -48.45340088 </i>
   </energy>
  </scstep>
  <scstep>
   <time name="dav">   14.46   14.89</time>
   <time name="total">   14.47   14.90</time>
   <energy>
    <i name="e_fr_energy">    -77.29924898 </i>
    <i name="e_wo_entrp">    -77.29840387 </i>
    <i name="e_0_energy">    -77.29882642 </i>
   </energy>
  </scstep>
  <scstep>
   <time name="dav">   12.63   12.92</time>
   <time name="total">   13.02   13.31</time>
   <energy>
    <i name="e_fr_energy">    -78.40650479 </i>
    <i name="e_wo_entrp">    -78.40524234 </i>
    <i name="e_0_energy">    -78.40587357 </i>
   </energy>
  </scstep>
  <scstep>
   <time name="dav">   12.63   12.95</time>
   <time name="total">   13.05   13.37</time>
   <energy>
    <i name="e_fr_energy">    -70.90878154 </i>
    <i name="e_wo_entrp">    -70.90766247 </i>
    <i name="e_0_energy">    -70.90822200 </i>
   </energy>
  </scstep>
  <scstep>
   <time name="dav">   13.07   13.44</time>
   <time name="total">   13.48   13.85</time>
   <energy>
    <i name="e_fr_energy">    -63.02703744 </i>
    <i name="e_wo_entrp">    -63.02652402 </i>
    <i name="e_0_energy">    -63.02678073 </i>
   </energy>
  </scstep>
  <scstep>
   <time name="dav">   13.30   13.60</time>
   <time name="total">   13.71   14.01</time>
   <energy>
    <i name="e_fr_energy">    -62.64962563 </i>
    <i name="e_wo_entrp">    -62.64955702 </i>
    <i name="e_0_energy">    -62.64959133 </i>
   </energy>
  </scstep>
  <scstep>
   <time name="dav">   14.48   14.90</time>
   <time name="total">   14.89   15.32</time>
   <energy>
    <i name="e_fr_energy">    -62.47999169 </i>
    <i name="e_wo_entrp">    -62.47957798 </i>
    <i name="e_0_energy">    -62.47978483 </i>
   </energy>
  </scstep>
  <scstep>
   <time name="dav">   15.57   15.96</time>
   <time name="total">   15.98   16.38</time>
   <energy>
    <i name="e_fr_energy">    -62.42569888 </i>
    <i name="e_wo_entrp">    -62.42569618 </i>
    <i name="e_0_energy">    -62.42569753 </i>
   </energy>
  </scstep>
  <scstep>
   <time name="dav">   14.41   14.77</time>
   <time name="total">   14.82   15.18</time>
   <energy>
    <i name="e_fr_energy">    -62.41428263 </i>
    <i name="e_wo_entrp">    -62.41416598 </i>
    <i name="e_0_energy">    -62.41422430 </i>
   </energy>
  </scstep>
  <scstep>
   <time name="dav">   14.49   14.83</time>
   <time name="total">   14.90   15.24</time>
   <energy>
    <i name="e_fr_energy">    -62.38745928 </i>
    <i name="e_wo_entrp">    -62.38697479 </i>
    <i name="e_0_energy">    -62.38721703 </i>
   </energy>
  </scstep>
  <scstep>
   <time name="dav">   16.74   17.16</time>
   <time name="total">   17.15   17.58</time>
   <energy>
    <i name="e_fr_energy">    -62.38012787 </i>
    <i name="e_wo_entrp">    -62.37982015 </i>
    <i name="e_0_energy">    -62.37997401 </i>
   </energy>
  </scstep>
  <scstep>
   <time name="dav">   13.53   13.80</time>
   <time name="total">   13.94   14.21</time>
   <energy>
    <i name="e_fr_energy">    -62.37247017 </i>
    <i name="e_wo_entrp">    -62.37219069 </i>
    <i name="e_0_energy">    -62.37233043 </i>
   </energy>
  </scstep>
  <scstep>
   <time name="dav">   14.49   14.72</time>
   <time name="total">   14.90   15.14</time>
   <energy>
    <i name="e_fr_energy">    -62.37291842 </i>
    <i name="e_wo_entrp">    -62.37263511 </i>
    <i name="e_0_energy">    -62.37277676 </i>
   </energy>
  </scstep>
  <scstep>
   <time name="dav">   13.22   13.56</time>
   <time name="total">   13.63   13.98</time>
   <energy>
    <i name="e_fr_energy">    -62.37261351 </i>
    <i name="e_wo_entrp">    -62.37231277 </i>
    <i name="e_0_energy">    -62.37246314 </i>
   </energy>
  </scstep>
  <scstep>
   <time name="dav">   17.10   17.53</time>
   <time name="total">   17.51   17.95</time>
   <energy>
    <i name="e_fr_energy">    -62.37277729 </i>
    <i name="e_wo_entrp">    -62.37246595 </i>
    <i name="e_0_energy">    -62.37262162 </i>
   </energy>
  </scstep>
  <scstep>
   <time name="dav">   14.67   15.09</time>
   <time name="total">   15.08   15.51</time>
   <energy>
    <i name="e_fr_energy">    -62.37268284 </i>
    <i name="e_wo_entrp">    -62.37237857 </i>
    <i name="e_0_energy">    -62.37253070 </i>
   </energy>
  </scstep>
  <scstep>
   <time name="dav">   15.41   15.78</time>
   <time name="total">   15.83   16.20</time>
   <energy>
    <i name="e_fr_energy">    -62.37271056 </i>
    <i name="e_wo_entrp">    -62.37241118 </i>
    <i name="e_0_energy">    -62.37256087 </i>
   </energy>
  </scstep>
  <scstep>
   <time name="dav">   13.80   14.16</time>
   <time name="total">   14.21   14.57</time>
   <energy>
    <i name="e_fr_energy">    -62.37282503 </i>
    <i name="e_wo_entrp">    -62.37252526 </i>
    <i name="e_0_energy">    -62.37267515 </i>
   </energy>
  </scstep>
  <scstep>
   <time name="dav">   13.57   13.89</time>
   <time name="total">   13.99   14.31</time>
   <energy>
    <i name="e_fr_energy">    -62.37283464 </i>
    <i name="e_wo_entrp">    -62.37253029 </i>
    <i name="e_0_energy">    -62.37268246 </i>
   </energy>
  </scstep>
  <scstep>
   <time name="dav">   12.82   13.18</time>
   <time name="total">   13.23   13.59</time>
   <energy>
    <i name="e_fr_energy">    -62.37285034 </i>
    <i name="e_wo_entrp">    -62.37254492 </i>
    <i name="e_0_energy">    -62.37269763 </i>
   </energy>
  </scstep>
  <scstep>
   <time name="dav">   14.20   14.39</time>
   <time name="total">   14.61   14.81</time>
   <energy>
    <i name="e_fr_energy">    -62.37287900 </i>
    <i name="e_wo_entrp">    -62.37257491 </i>
    <i name="e_0_energy">    -62.37272695 </i>
   </energy>
  </scstep>
  <scstep>
   <time name="dav">   12.49   12.83</time>
   <time name="total">   12.90   13.25</time>
   <energy>
    <i name="e_fr_energy">    -62.37288189 </i>
    <i name="e_wo_entrp">    -62.37257818 </i>
    <i name="e_0_energy">    -62.37273003 </i>
   </energy>
  </scstep>
  <scstep>
   <time name="dav">   12.03   12.35</time>
   <time name="total">   12.44   12.77</time>
   <energy>
    <i name="e_fr_energy">    -62.37288309 </i>
    <i name="e_wo_entrp">    -62.37257939 </i>
    <i name="e_0_energy">    -62.37273124 </i>
   </energy>
  </scstep>
  <scstep>
   <time name="dav">   14.19   14.51</time>
   <time name="total">   14.60   14.93</time>
   <energy>
    <i name="e_fr_energy">    -62.37288504 </i>
    <i name="e_wo_entrp">    -62.37258071 </i>
    <i name="e_0_energy">    -62.37273287 </i>
   </energy>
  </scstep>
  <scstep>
   <time name="dav">    9.41    9.64</time>
   <time name="total">    9.43    9.66</time>
   <energy>
    <i name="alphaZ">    582.73103390 </i>
    <i name="ewald">  13849.00974890 </i>
    <i name="hartreedc"> -36033.24644679 </i>
    <i name="XCdc">    740.91757585 </i>
    <i name="pawpsdc">  21371.56074749 </i>
    <i name="pawaedc"> -23098.16545229 </i>
    <i name="eentropy">     -0.00030422 </i>
    <i name="bandstr">   -163.16094644 </i>
    <i name="atom">  22687.98115858 </i>
    <i name="e_fr_energy">    -62.37288503 </i>
    <i name="e_wo_entrp">    -62.37258080 </i>
    <i name="e_0_energy">    -62.37273291 </i>
   </energy>
  </scstep>
  <structure>
   <crystal>
    <varray name="basis" >
     <v>       4.42708529      -2.55597888       0.00000000 </v>
     <v>       0.00000000       5.11195776       0.00000000 </v>
     <v>       0.00000000       0.00000000      15.00000000 </v>
    </varray>
    <i name="volume">    339.46609504 </i>
    <varray name="rec_basis" >
     <v>       0.22588225       0.00000000       0.00000000 </v>
     <v>       0.11294113       0.19561977       0.00000000 </v>
     <v>       0.00000000       0.00000000       0.06666667 </v>
    </varray>
   </crystal>
   <varray name="positions" >
    <v>       0.00000000       0.00000000       0.00000000 </v>
    <v>       0.83183700       0.66816300       0.27893398 </v>
    <v>       0.50499763       0.50999528       0.42215032 </v>
    <v>       0.50000000       0.50000000       0.00000000 </v>
    <v>       0.16666667       0.83333333       0.13912987 </v>
    <v>       0.33632600       0.66816300       0.27893398 </v>
    <v>       0.00000000       0.50000000       0.41204331 </v>
    <v>       0.66666667       0.83333333       0.13912987 </v>
    <v>       0.00000000       0.50000000       0.00000000 </v>
    <v>       0.83183700       0.16367400       0.27893398 </v>
    <v>       0.50499763       0.99500237       0.42215032 </v>
    <v>       0.50000000       0.00000000       0.00000000 </v>
    <v>       0.16666667       0.33333333       0.13912987 </v>
    <v>       0.33333333       0.16666667       0.27697670 </v>
    <v>       0.99000472       0.99500237       0.42215032 </v>
    <v>       0.66666667       0.33333333       0.13912987 </v>
    <v>       0.33333333       0.16666667       0.49767053 </v>
   </varray>
  </structure>
  <varray name="forces" >
   <v>      -0.04185161      -0.00004718       0.01330456 </v>
   <v>       0.00091377      -0.00159026      -0.00608451 </v>
   <v>      -0.00767421      -0.01322707      -0.02142827 </v>
   <v>       0.02096769       0.03622591       0.01330169 </v>
   <v>       0.00793801       0.01370946       0.01634199 </v>
   <v>      -0.00200339      -0.00004071      -0.00602200 </v>
   <v>       0.00003291       0.00003621      -0.01079827 </v>
   <v>       0.00001929      -0.00003351      -0.06698408 </v>
   <v>       0.00000429       0.00000239       0.05870261 </v>
   <v>       0.00101389       0.00168605      -0.00607899 </v>
   <v>      -0.00756779       0.01309706      -0.02143883 </v>
   <v>       0.02089327      -0.03619146       0.01330146 </v>
   <v>       0.00793535      -0.01373959       0.01637949 </v>
   <v>      -0.00001269       0.00007055      -0.01561005 </v>
   <v>       0.01522296       0.00003262      -0.02144592 </v>
   <v>      -0.01583846      -0.00001739       0.01634378 </v>
   <v>       0.00000674       0.00002690       0.02821535 </v>
  </varray>
  <varray name="stress" >
   <v>      -0.14644250      -0.01777807       0.00027396 </v>
   <v>      -0.01777821      -0.12606529      -0.00001233 </v>
   <v>       0.00027396      -0.00001240      -4.08238884 </v>
  </varray>
  <energy>
   <i name="e_fr_energy">    -62.37288503 </i>
   <i name="e_wo_entrp">    -62.37273291 </i>
   <i name="e_0_energy">     -0.00030422 </i>
  </energy>
  <time name="totalsc">  386.53  395.97</time>
 </calculation>
 <calculation>
  <scstep>
   <time name="dav">   10.97   11.29</time>
   <time name="total">   11.41   11.74</time>
   <energy>
    <i name="alphaZ">    582.73103390 </i>
    <i name="ewald">  13856.60574728 </i>
    <i name="hartreedc"> -36040.85453487 </i>
    <i name="XCdc">    740.91836911 </i>
    <i name="pawpsdc">  21371.51120064 </i>
    <i name="pawaedc"> -23098.11011595 </i>
    <i name="eentropy">     -0.00030213 </i>
    <i name="bandstr">   -163.15547613 </i>
    <i name="atom">  22687.98115858 </i>
    <i name="e_fr_energy">    -62.37291958 </i>
    <i name="e_wo_entrp">    -62.37261745 </i>
    <i name="e_0_energy">    -62.37276851 </i>
   </energy>
  </scstep>
  <scstep>
   <time name="dav">   15.64   16.07</time>
   <time name="total">   16.14   16.58</time>
   <energy>
    <i name="e_fr_energy">    -62.37303155 </i>
    <i name="e_wo_entrp">    -62.37273061 </i>
    <i name="e_0_energy">    -62.37288108 </i>
   </energy>
  </scstep>
  <scstep>
   <time name="dav">   12.62   13.00</time>
   <time name="total">   13.03   13.42</time>
   <energy>
    <i name="e_fr_energy">    -62.37303008 </i>
    <i name="e_wo_entrp">    -62.37272795 </i>
    <i name="e_0_energy">    -62.37287901 </i>
   </energy>
  </scstep>
  <scstep>
   <time name="dav">   13.32   13.55</time>
   <time name="total">   13.73   13.96</time>
   <energy>
    <i name="e_fr_energy">    -62.37302875 </i>
    <i name="e_wo_entrp">    -62.37272763 </i>
    <i name="e_0_energy">    -62.37287819 </i>
   </energy>
  </scstep>
  <scstep>
   <time name="dav">   18.18   18.66</time>
   <time name="total">   18.59   19.07</time>
   <energy>
    <i name="e_fr_energy">    -62.37302725 </i>
    <i name="e_wo_entrp">    -62.37272588 </i>
    <i name="e_0_energy">    -62.37287657 </i>
   </energy>
  </scstep>
  <scstep>
   <time name="dav">   16.32   16.71</time>
   <time name="total">   16.73   17.14</time>
   <energy>
    <i name="e_fr_energy">    -62.37302668 </i>
    <i name="e_wo_entrp">    -62.37272536 </i>
    <i name="e_0_energy">    -62.37287602 </i>
   </energy>
  </scstep>
  <scstep>
   <time name="dav">   14.02   14.36</time>
   <time name="total">   14.42   14.77</time>
   <energy>
    <i name="e_fr_energy">    -62.37302667 </i>
    <i name="e_wo_entrp">    -62.37272543 </i>
    <i name="e_0_energy">    -62.37287605 </i>
   </energy>
  </scstep>
  <scstep>
   <time name="dav">    7.97    8.18</time>
   <time name="total">    7.99    8.20</time>
   <energy>
    <i name="alphaZ">    582.73103390 </i>
    <i name="ewald">  13856.60574728 </i>
    <i name="hartreedc"> -36040.72889006 </i>
    <i name="XCdc">    740.91678816 </i>
    <i name="pawpsdc">  21371.30742123 </i>
    <i name="pawaedc"> -23097.90361247 </i>
    <i name="eentropy">     -0.00030141 </i>
    <i name="bandstr">   -163.28237185 </i>
    <i name="atom">  22687.98115858 </i>
    <i name="e_fr_energy">    -62.37302664 </i>
    <i name="e_wo_entrp">    -62.37272523 </i>
    <i name="e_0_energy">    -62.37287593 </i>
   </energy>
  </scstep>
  <structure>
   <crystal>
    <varray name="basis" >
     <v>       4.42708529      -2.55597888       0.00000000 </v>
     <v>       0.00000000       5.11195776       0.00000000 </v>
     <v>       0.00000000       0.00000000      15.00000000 </v>
    </varray>
    <i name="volume">    339.46609504 </i>
    <varray name="rec_basis" >
     <v>       0.22588225       0.00000000       0.00000000 </v>
     <v>       0.11294113       0.19561977       0.00000000 </v>
     <v>       0.00000000       0.00000000       0.06666667 </v>
    </varray>
   </crystal>
   <varray name="positions" >
    <v>       0.00000000       0.00000000       0.00000000 </v>
    <v>       0.83184696       0.66815297       0.27891441 </v>
    <v>       0.50491401       0.50982864       0.42208141 </v>
    <v>       0.50000000       0.50000000       0.00000000 </v>
    <v>       0.16666667       0.83333333       0.13912987 </v>
    <v>       0.33630417       0.66815170       0.27891461 </v>
    <v>       0.00000036       0.50000052       0.41200858 </v>
    <v>       0.66666667       0.83333333       0.13912987 </v>
    <v>       0.00000000       0.50000000       0.00000000 </v>
    <v>       0.83184805       0.16369543       0.27891443 </v>
    <v>       0.50491517       0.99508473       0.42208137 </v>
    <v>       0.50000000       0.00000000       0.00000000 </v>
    <v>       0.16666667       0.33333333       0.13912987 </v>
    <v>       0.33333320       0.16666726       0.27692649 </v>
    <v>       0.99017061       0.99508562       0.42208135 </v>
    <v>       0.66666667       0.33333333       0.13912987 </v>
    <v>       0.33333341       0.16666696       0.49776128 </v>
   </varray>
  </structure>
  <varray name="forces" >
   <v>      -0.04185236      -0.00004809       0.01281584 </v>
   <v>       0.00012026      -0.00021289      -0.00600377 </v>
   <v>      -0.00717611      -0.01241784      -0.01594084 </v>
   <v>       0.02096979       0.03622219       0.01281442 </v>
   <v>       0.00767630       0.01325394       0.01393744 </v>
   <v>      -0.00036936      -0.00000561      -0.00597091 </v>
   <v>       0.00000916       0.00003959      -0.00856346 </v>
   <v>       0.00001579      -0.00002992      -0.06862834 </v>
   <v>       0.00000119       0.00000097       0.05810636 </v>
   <v>       0.00017315       0.00029650      -0.00600682 </v>
   <v>      -0.00712778       0.01234572      -0.01592890 </v>
   <v>       0.02089503      -0.03618884       0.01281436 </v>
   <v>       0.00767334      -0.01328533       0.01396279 </v>
   <v>      -0.00000144       0.00003430      -0.01258743 </v>
   <v>       0.01431056       0.00001018      -0.01596841 </v>
   <v>      -0.01531407      -0.00001820       0.01393205 </v>
   <v>      -0.00000345       0.00000334       0.01721561 </v>
  </varray>
  <varray name="stress" >
   <v>       0.03231352      -0.01769459      -0.00004966 </v>
   <v>      -0.01769480       0.05295085      -0.00034166 </v>
   <v>      -0.00004965      -0.00034167      -3.84144848 </v>
  </varray>
  <energy>
   <i name="e_fr_energy">    -62.37302664 </i>
   <i name="e_wo_entrp">    -62.37287593 </i>
   <i name="e_0_energy">     -0.00030141 </i>
  </energy>
  <time name="totalsc">  122.72  125.79</time>
 </calculation>
 <calculation>
  <scstep>
   <time name="dav">   10.67   10.92</time>
   <time name="total">   11.07   11.33</time>
   <energy>
    <i name="alphaZ">    582.73103390 </i>
    <i name="ewald">  13879.40865701 </i>
    <i name="hartreedc"> -36063.57615296 </i>
    <i name="XCdc">    740.92029846 </i>
    <i name="pawpsdc">  21371.30305517 </i>
    <i name="pawaedc"> -23097.89814721 </i>
    <i name="eentropy">     -0.00029634 </i>
    <i name="bandstr">   -163.24187171 </i>
    <i name="atom">  22687.98115858 </i>
    <i name="e_fr_energy">    -62.37226510 </i>
    <i name="e_wo_entrp">    -62.37196876 </i>
    <i name="e_0_energy">    -62.37211693 </i>
   </energy>
  </scstep>
  <scstep>
   <time name="dav">   14.53   14.90</time>
   <time name="total">   14.94   15.32</time>
   <energy>
    <i name="e_fr_energy">    -62.37327862 </i>
    <i name="e_wo_entrp">    -62.37298543 </i>
    <i name="e_0_energy">    -62.37313202 </i>
   </energy>
  </scstep>
  <scstep>
   <time name="dav">   12.70   13.03</time>
   <time name="total">   13.11   13.44</time>
   <energy>
    <i name="e_fr_energy">    -62.37326051 </i>
    <i name="e_wo_entrp">    -62.37296448 </i>
    <i name="e_0_energy">    -62.37311250 </i>
   </energy>
  </scstep>
  <scstep>
   <time name="dav">   12.97   13.29</time>
   <time name="total">   13.39   13.72</time>
   <energy>
    <i name="e_fr_energy">    -62.37325122 </i>
    <i name="e_wo_entrp">    -62.37295808 </i>
    <i name="e_0_energy">    -62.37310465 </i>
   </energy>
  </scstep>
  <scstep>
   <time name="dav">   18.62   19.09</time>
   <time name="total">   19.04   19.52</time>
   <energy>
    <i name="e_fr_energy">    -62.37323876 </i>
    <i name="e_wo_entrp">    -62.37294458 </i>
    <i name="e_0_energy">    -62.37309167 </i>
   </energy>
  </scstep>
  <scstep>
   <time name="dav">   17.69   18.17</time>
   <time name="total">   18.10   18.58</time>
   <energy>
    <i name="e_fr_energy">    -62.37323270 </i>
    <i name="e_wo_entrp">    -62.37293901 </i>
    <i name="e_0_energy">    -62.37308586 </i>
   </energy>
  </scstep>
  <scstep>
   <time name="dav">   14.75   15.15</time>
   <time name="total">   15.16   15.56</time>
   <energy>
    <i name="e_fr_energy">    -62.37323262 </i>
    <i name="e_wo_entrp">    -62.37293863 </i>
    <i name="e_0_energy">    -62.37308562 </i>
   </energy>
  </scstep>
  <scstep>
   <time name="dav">   12.03   12.32</time>
   <time name="total">   12.43   12.73</time>
   <energy>
    <i name="e_fr_energy">    -62.37323255 </i>
    <i name="e_wo_entrp">    -62.37293843 </i>
    <i name="e_0_energy">    -62.37308549 </i>
   </energy>
  </scstep>
  <scstep>
   <time name="dav">   12.83   13.13</time>
   <time name="total">   12.85   13.15</time>
   <energy>
    <i name="alphaZ">    582.73103390 </i>
    <i name="ewald">  13879.40865701 </i>
    <i name="hartreedc"> -36063.15928856 </i>
    <i name="XCdc">    740.91488098 </i>
    <i name="pawpsdc">  21370.74551290 </i>
    <i name="pawaedc"> -23097.33247934 </i>
    <i name="eentropy">     -0.00029418 </i>
    <i name="bandstr">   -163.66241392 </i>
    <i name="atom">  22687.98115858 </i>
    <i name="e_fr_energy">    -62.37323263 </i>
    <i name="e_wo_entrp">    -62.37293846 </i>
    <i name="e_0_energy">    -62.37308554 </i>
   </energy>
  </scstep>
  <structure>
   <crystal>
    <varray name="basis" >
     <v>       4.42708529      -2.55597888       0.00000000 </v>
     <v>       0.00000000       5.11195776       0.00000000 </v>
     <v>       0.00000000       0.00000000      15.00000000 </v>
    </varray>
    <i name="volume">    339.46609504 </i>
    <varray name="rec_basis" >
     <v>       0.22588225       0.00000000       0.00000000 </v>
     <v>       0.11294113       0.19561977       0.00000000 </v>
     <v>       0.00000000       0.00000000       0.06666667 </v>
    </varray>
   </crystal>
   <varray name="positions" >
    <v>       0.00000000       0.00000000       0.00000000 </v>
    <v>       0.83187683       0.66812289       0.27885571 </v>
    <v>       0.50466312       0.50932872       0.42187466 </v>
    <v>       0.50000000       0.50000000       0.00000000 </v>
    <v>       0.16666667       0.83333333       0.13912987 </v>
    <v>       0.33623868       0.66811780       0.27885651 </v>
    <v>       0.00000143       0.50000208       0.41190439 </v>
    <v>       0.66666667       0.83333333       0.13912987 </v>
    <v>       0.00000000       0.50000000       0.00000000 </v>
    <v>       0.83188119       0.16375974       0.27885578 </v>
    <v>       0.50466776       0.99533183       0.42187452 </v>
    <v>       0.50000000       0.00000000       0.00000000 </v>
    <v>       0.16666667       0.33333333       0.13912987 </v>
    <v>       0.33333278       0.16666905       0.27677588 </v>
    <v>       0.99066827       0.99533537       0.42187443 </v>
    <v>       0.66666667       0.33333333       0.13912987 </v>
    <v>       0.33333363       0.16666783       0.49803351 </v>
   </varray>
  </structure>
  <varray name="forces" >
   <v>      -0.04188028      -0.00004210       0.01135923 </v>
   <v>      -0.00232759       0.00403812      -0.00657982 </v>
   <v>      -0.00529476      -0.00929055       0.00061162 </v>
   <v>       0.02097772       0.03624979       0.01135938 </v>
   <v>       0.00688659       0.01187504       0.00649419 </v>
   <v>       0.00466692       0.00010575      -0.00663552 </v>
   <v>      -0.00005763       0.00005176      -0.00232183 </v>
   <v>      -0.00000111      -0.00001884      -0.07366872 </v>
   <v>       0.00000278      -0.00000207       0.05619215 </v>
   <v>      -0.00241887      -0.00398297      -0.00660398 </v>
   <v>      -0.00544034       0.00944464       0.00070882 </v>
   <v>       0.02091173      -0.03621945       0.01135770 </v>
   <v>       0.00688066      -0.01190459       0.00648479 </v>
   <v>       0.00002994      -0.00007855      -0.00510045 </v>
   <v>       0.01079577      -0.00004782       0.00062976 </v>
   <v>      -0.01372487      -0.00001970       0.00647559 </v>
   <v>      -0.00000666      -0.00015846      -0.01076294 </v>
  </varray>
  <varray name="stress" >
   <v>      -0.16626943      -0.01746392      -0.00002765 </v>
   <v>      -0.01746408      -0.14562779      -0.00104517 </v>
   <v>      -0.00002759      -0.00104518      -3.86557761 </v>
  </varray>
  <energy>
   <i name="e_fr_energy">    -62.37323263 </i>
   <i name="e_wo_entrp">    -62.37308554 </i>
   <i name="e_0_energy">     -0.00029418 </i>
  </energy>
  <time name="totalsc">  140.70  144.19</time>
 </calculation>
 <calculation>
  <scstep>
   <time name="dav">   10.76   11.06</time>
   <time name="total">   11.18   11.48</time>
   <energy>
    <i name="alphaZ">    582.73103390 </i>
    <i name="ewald">  13882.95599019 </i>
    <i name="hartreedc"> -36066.69915804 </i>
    <i name="XCdc">    740.91522846 </i>
    <i name="pawpsdc">  21370.73601655 </i>
    <i name="pawaedc"> -23097.32098601 </i>
    <i name="eentropy">     -0.00029332 </i>
    <i name="bandstr">   -163.67219930 </i>
    <i name="atom">  22687.98115858 </i>
    <i name="e_fr_energy">    -62.37320898 </i>
    <i name="e_wo_entrp">    -62.37291566 </i>
    <i name="e_0_energy">    -62.37306232 </i>
   </energy>
  </scstep>
  <scstep>
   <time name="dav">   16.05   16.46</time>
   <time name="total">   16.46   16.88</time>
   <energy>
    <i name="e_fr_energy">    -62.37323376 </i>
    <i name="e_wo_entrp">    -62.37294087 </i>
    <i name="e_0_energy">    -62.37308731 </i>
   </energy>
  </scstep>
  <scstep>
   <time name="dav">   12.53   12.87</time>
   <time name="total">   12.94   13.30</time>
   <energy>
    <i name="e_fr_energy">    -62.37323364 </i>
    <i name="e_wo_entrp">    -62.37294020 </i>
    <i name="e_0_energy">    -62.37308692 </i>
   </energy>
  </scstep>
  <scstep>
   <time name="dav">   12.95   13.29</time>
   <time name="total">   13.36   13.70</time>
   <energy>
    <i name="e_fr_energy">    -62.37323326 </i>
    <i name="e_wo_entrp">    -62.37294027 </i>
    <i name="e_0_energy">    -62.37308676 </i>
   </energy>
  </scstep>
  <scstep>
   <time name="dav">   14.53   14.71</time>
   <time name="total">   14.95   15.13</time>
   <energy>
    <i name="e_fr_energy">    -62.37323314 </i>
    <i name="e_wo_entrp">    -62.37294014 </i>
    <i name="e_0_energy">    -62.37308664 </i>
   </energy>
  </scstep>
  <scstep>
   <time name="dav">   12.95   12.96</time>
   <time name="total">   13.36   13.37</time>
   <energy>
    <i name="e_fr_energy">    -62.37323312 </i>
    <i name="e_wo_entrp">    -62.37294013 </i>
    <i name="e_0_energy">    -62.37308662 </i>
   </energy>
  </scstep>
  <scstep>
   <time name="dav">   10.18   10.19</time>
   <time name="total">   10.21   10.21</time>
   <energy>
    <i name="alphaZ">    582.73103390 </i>
    <i name="ewald">  13882.95599019 </i>
    <i name="hartreedc"> -36066.60939385 </i>
    <i name="XCdc">    740.91439886 </i>
    <i name="pawpsdc">  21370.65520668 </i>
    <i name="pawaedc"> -23097.23948422 </i>
    <i name="eentropy">     -0.00029293 </i>
    <i name="bandstr">   -163.76185036 </i>
    <i name="atom">  22687.98115858 </i>
    <i name="e_fr_energy">    -62.37323314 </i>
    <i name="e_wo_entrp">    -62.37294021 </i>
    <i name="e_0_energy">    -62.37308668 </i>
   </energy>
  </scstep>
  <structure>
   <crystal>
    <varray name="basis" >
     <v>       4.42708529      -2.55597888       0.00000000 </v>
     <v>       0.00000000       5.11195776       0.00000000 </v>
     <v>       0.00000000       0.00000000      15.00000000 </v>
    </varray>
    <i name="volume">    339.46609504 </i>
    <varray name="rec_basis" >
     <v>       0.22588225       0.00000000       0.00000000 </v>
     <v>       0.11294113       0.19561977       0.00000000 </v>
     <v>       0.00000000       0.00000000       0.06666667 </v>
    </varray>
   </crystal>
   <varray name="positions" >
    <v>       0.00000000       0.00000000       0.00000000 </v>
    <v>       0.83188147       0.66811821       0.27884658 </v>
    <v>       0.50462412       0.50925099       0.42184251 </v>
    <v>       0.50000000       0.50000000       0.00000000 </v>
    <v>       0.16666667       0.83333333       0.13912987 </v>
    <v>       0.33622850       0.66811253       0.27884748 </v>
    <v>       0.00000160       0.50000233       0.41188819 </v>
    <v>       0.66666667       0.83333333       0.13912987 </v>
    <v>       0.00000000       0.50000000       0.00000000 </v>
    <v>       0.83188635       0.16376974       0.27884666 </v>
    <v>       0.50462930       0.99537025       0.42184236 </v>
    <v>       0.50000000       0.00000000       0.00000000 </v>
    <v>       0.16666667       0.33333333       0.13912987 </v>
    <v>       0.33333272       0.16666933       0.27675246 </v>
    <v>       0.99074565       0.99537420       0.42184226 </v>
    <v>       0.66666667       0.33333333       0.13912987 </v>
    <v>       0.33333366       0.16666797       0.49807584 </v>
   </varray>
  </structure>
  <varray name="forces" >
   <v>      -0.04187170      -0.00004038       0.01130681 </v>
   <v>      -0.00269193       0.00466873      -0.00667241 </v>
   <v>      -0.00514324      -0.00905089       0.00304815 </v>
   <v>       0.02097268       0.03624352       0.01130592 </v>
   <v>       0.00676062       0.01165631       0.00534376 </v>
   <v>       0.00541384       0.00012158      -0.00674304 </v>
   <v>      -0.00006848       0.00005754      -0.00114571 </v>
   <v>      -0.00000353      -0.00001510      -0.07443174 </v>
   <v>       0.00000308      -0.00000116       0.05609567 </v>
   <v>      -0.00280350      -0.00461727      -0.00670207 </v>
   <v>      -0.00529008       0.00918321       0.00314852 </v>
   <v>       0.02090810      -0.03621227       0.01130646 </v>
   <v>       0.00675533      -0.01168484       0.00532887 </v>
   <v>       0.00003545      -0.00009096      -0.00394154 </v>
   <v>       0.01049830      -0.00006045       0.00306668 </v>
   <v>      -0.01347268      -0.00001858       0.00532284 </v>
   <v>      -0.00000226      -0.00013898      -0.01563719 </v>
  </varray>
  <varray name="stress" >
   <v>      -0.10162976      -0.01735293      -0.00005928 </v>
   <v>      -0.01735313      -0.08092129      -0.00142538 </v>
   <v>      -0.00005930      -0.00142535      -3.75710839 </v>
  </varray>
  <energy>
   <i name="e_fr_energy">    -62.37323314 </i>
   <i name="e_wo_entrp">    -62.37308668 </i>
   <i name="e_0_energy">     -0.00029293 </i>
  </energy>
  <time name="totalsc">  103.09  104.91</time>
 </calculation>
 <calculation>
  <scstep>
   <time name="dav">   11.03   11.29</time>
   <time name="total">   11.43   11.70</time>
   <energy>
    <i name="alphaZ">    582.73103390 </i>
    <i name="ewald">  13888.44422889 </i>
    <i name="hartreedc"> -36072.03530709 </i>
    <i name="XCdc">    740.91905784 </i>
    <i name="pawpsdc">  21370.65679018 </i>
    <i name="pawaedc"> -23097.24129664 </i>
    <i name="eentropy">     -0.00029025 </i>
    <i name="bandstr">   -163.82852629 </i>
    <i name="atom">  22687.98115858 </i>
    <i name="e_fr_energy">    -62.37315088 </i>
    <i name="e_wo_entrp">    -62.37286063 </i>
    <i name="e_0_energy">    -62.37300575 </i>
   </energy>
  </scstep>
  <scstep>
   <time name="dav">   15.78   16.22</time>
   <time name="total">   16.19   16.64</time>
   <energy>
    <i name="e_fr_energy">    -62.37324094 </i>
    <i name="e_wo_entrp">    -62.37294875 </i>
    <i name="e_0_energy">    -62.37309485 </i>
   </energy>
  </scstep>
  <scstep>
   <time name="dav">   11.76   12.06</time>
   <time name="total">   12.17   12.47</time>
   <energy>
    <i name="e_fr_energy">    -62.37323921 </i>
    <i name="e_wo_entrp">    -62.37294891 </i>
    <i name="e_0_energy">    -62.37309406 </i>
   </energy>
  </scstep>
  <scstep>
   <time name="dav">   11.83   12.10</time>
   <time name="total">   12.24   12.52</time>
   <energy>
    <i name="e_fr_energy">    -62.37323829 </i>
    <i name="e_wo_entrp">    -62.37294734 </i>
    <i name="e_0_energy">    -62.37309282 </i>
   </energy>
  </scstep>
  <scstep>
   <time name="dav">   12.15   12.48</time>
   <time name="total">   12.56   12.90</time>
   <energy>
    <i name="e_fr_energy">    -62.37323804 </i>
    <i name="e_wo_entrp">    -62.37294719 </i>
    <i name="e_0_energy">    -62.37309261 </i>
   </energy>
  </scstep>
  <scstep>
   <time name="dav">   12.80   13.15</time>
   <time name="total">   13.21   13.57</time>
   <energy>
    <i name="e_fr_energy">    -62.37323751 </i>
    <i name="e_wo_entrp">    -62.37294679 </i>
    <i name="e_0_energy">    -62.37309215 </i>
   </energy>
  </scstep>
  <scstep>
   <time name="dav">   16.16   16.55</time>
   <time name="total">   16.58   16.98</time>
   <energy>
    <i name="e_fr_energy">    -62.37323761 </i>
    <i name="e_wo_entrp">    -62.37294663 </i>
    <i name="e_0_energy">    -62.37309212 </i>
   </energy>
  </scstep>
  <scstep>
   <time name="dav">    9.39    9.62</time>
   <time name="total">    9.42    9.64</time>
   <energy>
    <i name="alphaZ">    582.73103390 </i>
    <i name="ewald">  13888.44422889 </i>
    <i name="hartreedc"> -36072.07546050 </i>
    <i name="XCdc">    740.91872633 </i>
    <i name="pawpsdc">  21371.41923921 </i>
    <i name="pawaedc"> -23098.01612414 </i>
    <i name="eentropy">     -0.00029089 </i>
    <i name="bandstr">   -163.77574896 </i>
    <i name="atom">  22687.98115858 </i>
    <i name="e_fr_energy">    -62.37323758 </i>
    <i name="e_wo_entrp">    -62.37294669 </i>
    <i name="e_0_energy">    -62.37309214 </i>
   </energy>
  </scstep>
  <structure>
   <crystal>
    <varray name="basis" >
     <v>       4.42708529      -2.55597888       0.00000000 </v>
     <v>       0.00000000       5.11195776       0.00000000 </v>
     <v>       0.00000000       0.00000000      15.00000000 </v>
    </varray>
    <i name="volume">    339.46609504 </i>
    <varray name="rec_basis" >
     <v>       0.22588225       0.00000000       0.00000000 </v>
     <v>       0.11294113       0.19561977       0.00000000 </v>
     <v>       0.00000000       0.00000000       0.06666667 </v>
    </varray>
   </crystal>
   <varray name="positions" >
    <v>       0.00000000       0.00000000       0.00000000 </v>
    <v>       0.83183602       0.66816373       0.27880194 </v>
    <v>       0.50449375       0.50898823       0.42182988 </v>
    <v>       0.50000000       0.50000000       0.00000000 </v>
    <v>       0.16666667       0.83333333       0.13912987 </v>
    <v>       0.33631913       0.66815963       0.27880254 </v>
    <v>       0.00000049       0.50000284       0.41186722 </v>
    <v>       0.66666667       0.83333333       0.13912987 </v>
    <v>       0.00000000       0.50000000       0.00000000 </v>
    <v>       0.83183930       0.16367918       0.27880187 </v>
    <v>       0.50449671       0.99550313       0.42183026 </v>
    <v>       0.50000000       0.00000000       0.00000000 </v>
    <v>       0.16666667       0.33333333       0.13912987 </v>
    <v>       0.33333331       0.16666846       0.27670970 </v>
    <v>       0.99100972       0.99550541       0.42182970 </v>
    <v>       0.66666667       0.33333333       0.13912987 </v>
    <v>       0.33333365       0.16666585       0.49802917 </v>
   </varray>
  </structure>
  <varray name="forces" >
   <v>      -0.04188607      -0.00003222       0.01138396 </v>
   <v>      -0.00037340       0.00065222      -0.00117917 </v>
   <v>       0.00723958       0.01255942      -0.00586154 </v>
   <v>       0.02097534       0.03626160       0.01138418 </v>
   <v>       0.00664481       0.01147947       0.00348775 </v>
   <v>       0.00071821       0.00003785      -0.00118725 </v>
   <v>      -0.00002129       0.00000555      -0.00477190 </v>
   <v>      -0.00000190      -0.00001370      -0.07770598 </v>
   <v>       0.00000178       0.00000354       0.05610339 </v>
   <v>      -0.00038483      -0.00059553      -0.00116258 </v>
   <v>       0.00727654      -0.01257375      -0.00587105 </v>
   <v>       0.02091312      -0.03621807       0.01137994 </v>
   <v>       0.00664409      -0.01149213       0.00349855 </v>
   <v>       0.00001602      -0.00005745      -0.00157031 </v>
   <v>      -0.01449137       0.00002513      -0.00589128 </v>
   <v>      -0.01325748      -0.00000664       0.00347038 </v>
   <v>      -0.00001316      -0.00003529       0.00449291 </v>
  </varray>
  <varray name="stress" >
   <v>      -0.00600438      -0.01756038      -0.00007839 </v>
   <v>      -0.01756061       0.01423435      -0.00038874 </v>
   <v>      -0.00007835      -0.00038872      -3.58697733 </v>
  </varray>
  <energy>
   <i name="e_fr_energy">    -62.37323758 </i>
   <i name="e_wo_entrp">    -62.37309214 </i>
   <i name="e_0_energy">     -0.00029089 </i>
  </energy>
  <time name="totalsc">  114.50  117.26</time>
 </calculation>
 <calculation>
  <scstep>
   <time name="dav">   11.03   11.31</time>
   <time name="total">   11.44   11.73</time>
   <energy>
    <i name="alphaZ">    582.73103390 </i>
    <i name="ewald">  13885.73108052 </i>
    <i name="hartreedc"> -36069.39309854 </i>
    <i name="XCdc">    740.91642740 </i>
    <i name="pawpsdc">  21371.42068760 </i>
    <i name="pawaedc"> -23098.01766835 </i>
    <i name="eentropy">     -0.00029235 </i>
    <i name="bandstr">   -163.74255847 </i>
    <i name="atom">  22687.98115858 </i>
    <i name="e_fr_energy">    -62.37322971 </i>
    <i name="e_wo_entrp">    -62.37293736 </i>
    <i name="e_0_energy">    -62.37308354 </i>
   </energy>
  </scstep>
  <scstep>
   <time name="dav">   15.60   15.96</time>
   <time name="total">   16.01   16.38</time>
   <energy>
    <i name="e_fr_energy">    -62.37325062 </i>
    <i name="e_wo_entrp">    -62.37295919 </i>
    <i name="e_0_energy">    -62.37310491 </i>
   </energy>
  </scstep>
  <scstep>
   <time name="dav">   11.72   12.05</time>
   <time name="total">   12.14   12.47</time>
   <energy>
    <i name="e_fr_energy">    -62.37325044 </i>
    <i name="e_wo_entrp">    -62.37295816 </i>
    <i name="e_0_energy">    -62.37310430 </i>
   </energy>
  </scstep>
  <scstep>
   <time name="dav">   11.88   12.20</time>
   <time name="total">   12.29   12.61</time>
   <energy>
    <i name="e_fr_energy">    -62.37325003 </i>
    <i name="e_wo_entrp">    -62.37295812 </i>
    <i name="e_0_energy">    -62.37310407 </i>
   </energy>
  </scstep>
  <scstep>
   <time name="dav">   12.85   13.15</time>
   <time name="total">   13.26   13.56</time>
   <energy>
    <i name="e_fr_energy">    -62.37324975 </i>
    <i name="e_wo_entrp">    -62.37295768 </i>
    <i name="e_0_energy">    -62.37310371 </i>
   </energy>
  </scstep>
  <scstep>
   <time name="dav">   12.65   13.01</time>
   <time name="total">   13.06   13.43</time>
   <energy>
    <i name="e_fr_energy">    -62.37324952 </i>
    <i name="e_wo_entrp">    -62.37295751 </i>
    <i name="e_0_energy">    -62.37310351 </i>
   </energy>
  </scstep>
  <scstep>
   <time name="dav">    8.44    8.63</time>
   <time name="total">    8.46    8.66</time>
   <energy>
    <i name="alphaZ">    582.73103390 </i>
    <i name="ewald">  13885.73108052 </i>
    <i name="hartreedc"> -36069.36490872 </i>
    <i name="XCdc">    740.91649049 </i>
    <i name="pawpsdc">  21371.06172489 </i>
    <i name="pawaedc"> -23097.65219196 </i>
    <i name="eentropy">     -0.00029189 </i>
    <i name="bandstr">   -163.77734534 </i>
    <i name="atom">  22687.98115858 </i>
    <i name="e_fr_energy">    -62.37324953 </i>
    <i name="e_wo_entrp">    -62.37295764 </i>
    <i name="e_0_energy">    -62.37310358 </i>
   </energy>
  </scstep>
  <structure>
   <crystal>
    <varray name="basis" >
     <v>       4.42708529      -2.55597888       0.00000000 </v>
     <v>       0.00000000       5.11195776       0.00000000 </v>
     <v>       0.00000000       0.00000000      15.00000000 </v>
    </varray>
    <i name="volume">    339.46609504 </i>
    <varray name="rec_basis" >
     <v>       0.22588225       0.00000000       0.00000000 </v>
     <v>       0.11294113       0.19561977       0.00000000 </v>
     <v>       0.00000000       0.00000000       0.06666667 </v>
    </varray>
   </crystal>
   <varray name="positions" >
    <v>       0.00000000       0.00000000       0.00000000 </v>
    <v>       0.83185848       0.66814123       0.27882400 </v>
    <v>       0.50455817       0.50911808       0.42183612 </v>
    <v>       0.50000000       0.50000000       0.00000000 </v>
    <v>       0.16666667       0.83333333       0.13912987 </v>
    <v>       0.33627434       0.66813636       0.27882475 </v>
    <v>       0.00000104       0.50000258       0.41187759 </v>
    <v>       0.66666667       0.83333333       0.13912987 </v>
    <v>       0.00000000       0.50000000       0.00000000 </v>
    <v>       0.83186255       0.16372393       0.27882400 </v>
    <v>       0.50456223       0.99543746       0.42183624 </v>
    <v>       0.50000000       0.00000000       0.00000000 </v>
    <v>       0.16666667       0.33333333       0.13912987 </v>
    <v>       0.33333302       0.16666889       0.27673083 </v>
    <v>       0.99087922       0.99544057       0.42183591 </v>
    <v>       0.66666667       0.33333333       0.13912987 </v>
    <v>       0.33333366       0.16666690       0.49805223 </v>
   </varray>
  </structure>
  <varray name="forces" >
   <v>      -0.04188458      -0.00003094       0.01138379 </v>
   <v>      -0.00149022       0.00259135      -0.00409164 </v>
   <v>       0.00109714       0.00185374      -0.00119548 </v>
   <v>       0.02097255       0.03626067       0.01138362 </v>
   <v>       0.00669566       0.01156748       0.00437405 </v>
   <v>       0.00312174       0.00008826      -0.00413902 </v>
   <v>      -0.00004786       0.00003646      -0.00304239 </v>
   <v>      -0.00000577      -0.00000894      -0.07612504 </v>
   <v>      -0.00000084       0.00000728       0.05611643 </v>
   <v>      -0.00162739      -0.00265111      -0.00410358 </v>
   <v>       0.00103538      -0.00176564      -0.00113990 </v>
   <v>       0.02090770      -0.03620999       0.01138196 </v>
   <v>       0.00669212      -0.01157515       0.00437186 </v>
   <v>       0.00000801      -0.00003978      -0.00297400 </v>
   <v>      -0.00209736      -0.00000898      -0.00119567 </v>
   <v>      -0.01336027      -0.00000660       0.00435476 </v>
   <v>      -0.00001601      -0.00010810      -0.00535972 </v>
  </varray>
  <varray name="stress" >
   <v>      -0.05864642      -0.01710816      -0.00011266 </v>
   <v>      -0.01710839      -0.03852050      -0.00064332 </v>
   <v>      -0.00011269      -0.00064328      -3.67480548 </v>
  </varray>
  <energy>
   <i name="e_fr_energy">    -62.37324953 </i>
   <i name="e_wo_entrp">    -62.37310358 </i>
   <i name="e_0_energy">     -0.00029189 </i>
  </energy>
  <time name="totalsc">   97.31   99.74</time>
 </calculation>
 <calculation>
  <scstep>
   <time name="dav">   10.68   10.96</time>
   <time name="total">   11.09   11.37</time>
   <energy>
    <i name="alphaZ">    582.73103390 </i>
    <i name="ewald">  13888.22211359 </i>
    <i name="hartreedc"> -36071.84169260 </i>
    <i name="XCdc">    740.91758922 </i>
    <i name="pawpsdc">  21371.05967149 </i>
    <i name="pawaedc"> -23097.65031940 </i>
    <i name="eentropy">     -0.00029188 </i>
    <i name="bandstr">   -163.79250699 </i>
    <i name="atom">  22687.98115858 </i>
    <i name="e_fr_energy">    -62.37324408 </i>
    <i name="e_wo_entrp">    -62.37295221 </i>
    <i name="e_0_energy">    -62.37309814 </i>
   </energy>
  </scstep>
  <scstep>
   <time name="dav">   14.89   15.19</time>
   <time name="total">   15.30   15.60</time>
   <energy>
    <i name="e_fr_energy">    -62.37325457 </i>
    <i name="e_wo_entrp">    -62.37296231 </i>
    <i name="e_0_energy">    -62.37310844 </i>
   </energy>
  </scstep>
  <scstep>
   <time name="dav">   12.20   12.55</time>
   <time name="total">   12.61   12.97</time>
   <energy>
    <i name="e_fr_energy">    -62.37325443 </i>
    <i name="e_wo_entrp">    -62.37296251 </i>
    <i name="e_0_energy">    -62.37310847 </i>
   </energy>
  </scstep>
  <scstep>
   <time name="dav">   13.52   13.97</time>
   <time name="total">   13.54   13.99</time>
   <energy>
    <i name="alphaZ">    582.73103390 </i>
    <i name="ewald">  13888.22211359 </i>
    <i name="hartreedc"> -36071.84977926 </i>
    <i name="XCdc">    740.91753328 </i>
    <i name="pawpsdc">  21371.17268931 </i>
    <i name="pawaedc"> -23097.76510246 </i>
    <i name="eentropy">     -0.00029220 </i>
    <i name="bandstr">   -163.78260911 </i>
    <i name="atom">  22687.98115858 </i>
    <i name="e_fr_energy">    -62.37325437 </i>
    <i name="e_wo_entrp">    -62.37296217 </i>
    <i name="e_0_energy">    -62.37310827 </i>
   </energy>
  </scstep>
  <structure>
   <crystal>
    <varray name="basis" >
     <v>       4.42708529      -2.55597888       0.00000000 </v>
     <v>       0.00000000       5.11195776       0.00000000 </v>
     <v>       0.00000000       0.00000000      15.00000000 </v>
    </varray>
    <i name="volume">    339.46609504 </i>
    <varray name="rec_basis" >
     <v>       0.22588225       0.00000000       0.00000000 </v>
     <v>       0.11294113       0.19561977       0.00000000 </v>
     <v>       0.00000000       0.00000000       0.06666667 </v>
    </varray>
   </crystal>
   <varray name="positions" >
    <v>       0.00000000       0.00000000       0.00000000 </v>
    <v>       0.83183425       0.66816561       0.27880446 </v>
    <v>       0.50457798       0.50915705       0.42183041 </v>
    <v>       0.50000000       0.50000000       0.00000000 </v>
    <v>       0.16666667       0.83333333       0.13912987 </v>
    <v>       0.33632516       0.66816302       0.27880497 </v>
    <v>       0.00000026       0.50000271       0.41186291 </v>
    <v>       0.66666667       0.83333333       0.13912987 </v>
    <v>       0.00000000       0.50000000       0.00000000 </v>
    <v>       0.83183605       0.16367331       0.27880440 </v>
    <v>       0.50458104       0.99541905       0.42183079 </v>
    <v>       0.50000000       0.00000000       0.00000000 </v>
    <v>       0.16666667       0.33333333       0.13912987 </v>
    <v>       0.33333314       0.16666839       0.27671675 </v>
    <v>       0.99084117       0.99542142       0.42183019 </v>
    <v>       0.66666667       0.33333333       0.13912987 </v>
    <v>       0.33333339       0.16666523       0.49802649 </v>
   </varray>
  </structure>
  <varray name="forces" >
   <v>      -0.04188321      -0.00003404       0.01141530 </v>
   <v>       0.00000933      -0.00001097      -0.00214956 </v>
   <v>       0.00003762       0.00008612      -0.00156118 </v>
   <v>       0.02097927       0.03626018       0.01141484 </v>
   <v>       0.00668060       0.01153705       0.00377211 </v>
   <v>      -0.00010049       0.00000545      -0.00214068 </v>
   <v>      -0.00000067       0.00000180      -0.00406440 </v>
   <v>       0.00000552      -0.00001782      -0.07767656 </v>
   <v>       0.00000378       0.00000500       0.05614060 </v>
   <v>       0.00005262       0.00009730      -0.00213057 </v>
   <v>       0.00013487      -0.00021158      -0.00162256 </v>
   <v>       0.02091521      -0.03621709       0.01141203 </v>
   <v>       0.00667794      -0.01154791       0.00379278 </v>
   <v>      -0.00000949       0.00002422      -0.00118671 </v>
   <v>      -0.00016918       0.00002157      -0.00162382 </v>
   <v>      -0.01332198      -0.00000740       0.00375816 </v>
   <v>      -0.00001174       0.00000811      -0.00754977 </v>
  </varray>
  <varray name="stress" >
   <v>      -0.08310306      -0.01768184      -0.00010983 </v>
   <v>      -0.01768208      -0.06245507      -0.00052934 </v>
   <v>      -0.00010992      -0.00052929      -3.67864144 </v>
  </varray>
  <energy>
   <i name="e_fr_energy">    -62.37325437 </i>
   <i name="e_wo_entrp">    -62.37310827 </i>
   <i name="e_0_energy">     -0.00029220 </i>
  </energy>
  <time name="totalsc">   63.17   64.81</time>
 </calculation>
 <calculation>
  <scstep>
   <time name="dav">   10.73   11.01</time>
   <time name="total">   11.14   11.42</time>
   <energy>
    <i name="alphaZ">    582.73103390 </i>
    <i name="ewald">  13892.19162421 </i>
    <i name="hartreedc"> -36075.79272977 </i>
    <i name="XCdc">    740.91907109 </i>
    <i name="pawpsdc">  21371.19080120 </i>
    <i name="pawaedc"> -23097.78273290 </i>
    <i name="eentropy">     -0.00029216 </i>
    <i name="bandstr">   -163.81116344 </i>
    <i name="atom">  22687.98115858 </i>
    <i name="e_fr_energy">    -62.37322928 </i>
    <i name="e_wo_entrp">    -62.37293712 </i>
    <i name="e_0_energy">    -62.37308320 </i>
   </energy>
  </scstep>
  <scstep>
   <time name="dav">   14.28   14.69</time>
   <time name="total">   14.69   15.11</time>
   <energy>
    <i name="e_fr_energy">    -62.37325568 </i>
    <i name="e_wo_entrp">    -62.37296352 </i>
    <i name="e_0_energy">    -62.37310960 </i>
   </energy>
  </scstep>
  <scstep>
   <time name="dav">   12.93   13.23</time>
   <time name="total">   13.33   13.64</time>
   <energy>
    <i name="e_fr_energy">    -62.37325544 </i>
    <i name="e_wo_entrp">    -62.37296274 </i>
    <i name="e_0_energy">    -62.37310909 </i>
   </energy>
  </scstep>
  <scstep>
   <time name="dav">   13.30   13.64</time>
   <time name="total">   13.71   14.06</time>
   <energy>
    <i name="e_fr_energy">    -62.37325499 </i>
    <i name="e_wo_entrp">    -62.37296275 </i>
    <i name="e_0_energy">    -62.37310887 </i>
   </energy>
  </scstep>
  <scstep>
   <time name="dav">   14.47   14.84</time>
   <time name="total">   14.88   15.25</time>
   <energy>
    <i name="e_fr_energy">    -62.37325466 </i>
    <i name="e_wo_entrp">    -62.37296258 </i>
    <i name="e_0_energy">    -62.37310862 </i>
   </energy>
  </scstep>
  <scstep>
   <time name="dav">   11.90   12.19</time>
   <time name="total">   11.92   12.21</time>
   <energy>
    <i name="alphaZ">    582.73103390 </i>
    <i name="ewald">  13892.19162421 </i>
    <i name="hartreedc"> -36075.81406989 </i>
    <i name="XCdc">    740.91873535 </i>
    <i name="pawpsdc">  21371.47071427 </i>
    <i name="pawaedc"> -23098.06802398 </i>
    <i name="eentropy">     -0.00029239 </i>
    <i name="bandstr">   -163.78413474 </i>
    <i name="atom">  22687.98115858 </i>
    <i name="e_fr_energy">    -62.37325469 </i>
    <i name="e_wo_entrp">    -62.37296230 </i>
    <i name="e_0_energy">    -62.37310850 </i>
   </energy>
  </scstep>
  <structure>
   <crystal>
    <varray name="basis" >
     <v>       4.42708529      -2.55597888       0.00000000 </v>
     <v>       0.00000000       5.11195776       0.00000000 </v>
     <v>       0.00000000       0.00000000      15.00000000 </v>
    </varray>
    <i name="volume">    339.46609504 </i>
    <varray name="rec_basis" >
     <v>       0.22588225       0.00000000       0.00000000 </v>
     <v>       0.11294113       0.19561977       0.00000000 </v>
     <v>       0.00000000       0.00000000       0.06666667 </v>
    </varray>
   </crystal>
   <varray name="positions" >
    <v>       0.00000000       0.00000000       0.00000000 </v>
    <v>       0.83179564       0.66820445       0.27877332 </v>
    <v>       0.50460954       0.50921914       0.42182130 </v>
    <v>       0.50000000       0.50000000       0.00000000 </v>
    <v>       0.16666667       0.83333333       0.13912987 </v>
    <v>       0.33640613       0.66820549       0.27877347 </v>
    <v>      -0.00000099       0.50000290       0.41183952 </v>
    <v>       0.66666667       0.83333333       0.13912987 </v>
[...]
       <r>   -0.4785    1.0000 </r>
       <r>   -0.4317    1.0000 </r>
       <r>   -0.3899    1.0000 </r>
       <r>   -0.3697    1.0000 </r>
       <r>   -0.3594    1.0000 </r>
       <r>   -0.3427    1.0000 </r>
       <r>   -0.2640    1.0000 </r>
       <r>   -0.2311    1.0000 </r>
       <r>   -0.2049    1.0000 </r>
       <r>   -0.1754    1.0000 </r>
       <r>   -0.1637    1.0000 </r>
       <r>   -0.1044    1.0000 </r>
       <r>   -0.0526    1.0000 </r>
       <r>   -0.0103    1.0000 </r>
       <r>    0.0131    1.0000 </r>
       <r>    0.0372    1.0000 </r>
       <r>    0.0684    1.0000 </r>
       <r>    0.1182    1.0000 </r>
       <r>    0.1393    1.0000 </r>
       <r>    0.1607    1.0000 </r>
       <r>    0.1839    1.0000 </r>
       <r>    0.2188    1.0000 </r>
       <r>    0.2434    1.0000 </r>
       <r>    0.2733    1.0000 </r>
       <r>    0.3221    1.0000 </r>
       <r>    0.3676    1.0000 </r>
       <r>    0.3913    1.0000 </r>
       <r>    0.4093    1.0000 </r>
       <r>    0.4403    1.0000 </r>
       <r>    0.4916    1.0000 </r>
       <r>    0.5215    1.0000 </r>
       <r>    0.5406    1.0000 </r>
       <r>    0.5438    1.0000 </r>
       <r>    0.5834    1.0000 </r>
       <r>    0.6204    1.0000 </r>
       <r>    0.6478    1.0000 </r>
       <r>    0.7329    1.0000 </r>
       <r>    1.0319    1.0000 </r>
       <r>    1.0974    1.0000 </r>
       <r>    1.3610    1.0000 </r>
       <r>    1.5294    1.0000 </r>
       <r>    1.9686    1.0000 </r>
       <r>    2.3842    0.0000 </r>
       <r>    2.8957    0.0000 </r>
       <r>    3.1432    0.0000 </r>
       <r>    3.5906    0.0000 </r>
       <r>    3.9586    0.0000 </r>
       <r>    4.4618    0.0000 </r>
       <r>    4.7271    0.0000 </r>
       <r>    5.5908    0.0000 </r>
       <r>    5.9272    0.0000 </r>
       <r>    6.3650    0.0000 </r>
       <r>    7.1556    0.0000 </r>
       <r>    7.5906    0.0000 </r>
       <r>    7.6598    0.0000 </r>
       <r>    8.3637    0.0000 </r>
       <r>    8.6525    0.0000 </r>
       <r>    9.0276    0.0000 </r>
       <r>    9.1506    0.0000 </r>
       <r>    9.4833    0.0000 </r>
       <r>    9.7546    0.0000 </r>
      </set>
     </set>
    </set>
   </array>
  </eigenvalues>
  <separator name="orbital magnetization" >
   <v name="MAGDIPOLOUT">      0.00000000      0.00000000      0.00000000</v>
  </separator>
  <dos>
   <i name="efermi">      2.11528849 </i>
   <total>
    <array>
     <dimension dim="1">gridpoints</dimension>
     <dimension dim="2">spin</dimension>
     <field>energy</field>
     <field>total</field>
     <field>integrated</field>
     <set>
      <set comment="spin 1">
       <r>   -17.3676     0.0000     0.0000 </r>
       <r>   -17.2715     0.0000     0.0000 </r>
       <r>   -17.1754     0.0000     0.0000 </r>
       <r>   -17.0793     0.0000     0.0000 </r>
       <r>   -16.9832     0.0000     0.0000 </r>
       <r>   -16.8871     0.0000     0.0000 </r>
       <r>   -16.7910     0.0000     0.0000 </r>
       <r>   -16.6949     0.0000     0.0000 </r>
       <r>   -16.5989     0.0000     0.0000 </r>
       <r>   -16.5028     0.0000     0.0000 </r>
       <r>   -16.4067     0.0000     0.0000 </r>
       <r>   -16.3106     0.0000     0.0000 </r>
       <r>   -16.2145     0.0000     0.0000 </r>
       <r>   -16.1184     0.0000     0.0000 </r>
       <r>   -16.0223    20.8009     1.9988 </r>
       <r>   -15.9262     0.0000     2.0000 </r>
       <r>   -15.8301     0.0000     2.0000 </r>
       <r>   -15.7340     0.0000     2.0000 </r>
       <r>   -15.6379     0.0000     2.0000 </r>
       <r>   -15.5419     0.0000     2.0000 </r>
       <r>   -15.4458     0.0000     2.0000 </r>
       <r>   -15.3497     0.0000     2.0000 </r>
       <r>   -15.2536     0.0000     2.0000 </r>
       <r>   -15.1575     0.0000     2.0000 </r>
       <r>   -15.0614     0.0000     2.0000 </r>
       <r>   -14.9653     0.0000     2.0000 </r>
       <r>   -14.8692     0.0000     2.0000 </r>
       <r>   -14.7731     0.0000     2.0000 </r>
       <r>   -14.6770     0.0000     2.0000 </r>
       <r>   -14.5809     0.0000     2.0000 </r>
       <r>   -14.4848     0.0000     2.0000 </r>
       <r>   -14.3888     0.0000     2.0000 </r>
       <r>   -14.2927     0.0000     2.0000 </r>
       <r>   -14.1966     0.0000     2.0000 </r>
       <r>   -14.1005     0.0000     2.0000 </r>
       <r>   -14.0044     0.0000     2.0000 </r>
       <r>   -13.9083     0.0000     2.0000 </r>
       <r>   -13.8122     0.0000     2.0000 </r>
       <r>   -13.7161     0.0000     2.0000 </r>
       <r>   -13.6200     0.0000     2.0000 </r>
       <r>   -13.5239     0.0000     2.0000 </r>
       <r>   -13.4278     0.0000     2.0000 </r>
       <r>   -13.3318     0.0000     2.0000 </r>
       <r>   -13.2357     0.0000     2.0000 </r>
       <r>   -13.1396     0.0000     2.0000 </r>
       <r>   -13.0435     0.0000     2.0000 </r>
       <r>   -12.9474     0.0000     2.0000 </r>
       <r>   -12.8513     0.0000     2.0000 </r>
       <r>   -12.7552     0.0000     2.0000 </r>
       <r>   -12.6591     0.0000     2.0000 </r>
       <r>   -12.5630     0.0000     2.0000 </r>
       <r>   -12.4669     0.0000     2.0000 </r>
       <r>   -12.3708     0.0000     2.0000 </r>
       <r>   -12.2748     0.0000     2.0000 </r>
       <r>   -12.1787     0.0000     2.0000 </r>
       <r>   -12.0826     0.0000     2.0000 </r>
       <r>   -11.9865     0.0000     2.0000 </r>
       <r>   -11.8904     0.0000     2.0000 </r>
       <r>   -11.7943     0.0000     2.0000 </r>
       <r>   -11.6982     0.0000     2.0000 </r>
       <r>   -11.6021     0.0000     2.0000 </r>
       <r>   -11.5060     0.0000     2.0000 </r>
       <r>   -11.4099     0.0000     2.0000 </r>
       <r>   -11.3138     0.0000     2.0000 </r>
       <r>   -11.2178     0.0000     2.0000 </r>
       <r>   -11.1217     0.0000     2.0000 </r>
       <r>   -11.0256     0.0000     2.0000 </r>
       <r>   -10.9295     0.0000     2.0000 </r>
       <r>   -10.8334     0.0000     2.0000 </r>
       <r>   -10.7373     0.0000     2.0000 </r>
       <r>   -10.6412     0.0000     2.0000 </r>
       <r>   -10.5451     0.0000     2.0000 </r>
       <r>   -10.4490     0.0000     2.0000 </r>
       <r>   -10.3529     0.0000     2.0000 </r>
       <r>   -10.2568     0.0000     2.0000 </r>
       <r>   -10.1607     0.0000     2.0000 </r>
       <r>   -10.0647     0.0000     2.0000 </r>
       <r>    -9.9686     0.0000     2.0000 </r>
       <r>    -9.8725     0.0000     2.0000 </r>
       <r>    -9.7764     0.0000     2.0000 </r>
       <r>    -9.6803     0.0000     2.0000 </r>
       <r>    -9.5842     0.0000     2.0000 </r>
       <r>    -9.4881     0.0000     2.0000 </r>
       <r>    -9.3920     0.0000     2.0000 </r>
       <r>    -9.2959     0.0000     2.0000 </r>
       <r>    -9.1998     0.0000     2.0000 </r>
       <r>    -9.1037     0.0000     2.0000 </r>
       <r>    -9.0077     0.0000     2.0000 </r>
       <r>    -8.9116     0.0000     2.0000 </r>
       <r>    -8.8155     0.0000     2.0000 </r>
       <r>    -8.7194     0.0000     2.0000 </r>
       <r>    -8.6233     0.0000     2.0000 </r>
       <r>    -8.5272     0.0000     2.0000 </r>
       <r>    -8.4311     0.0000     2.0000 </r>
       <r>    -8.3350     0.0000     2.0000 </r>
       <r>    -8.2389     0.0000     2.0000 </r>
       <r>    -8.1428     0.0000     2.0000 </r>
       <r>    -8.0467     0.0000     2.0000 </r>
       <r>    -7.9507     0.0000     2.0000 </r>
       <r>    -7.8546     0.0000     2.0000 </r>
       <r>    -7.7585     0.0000     2.0000 </r>
       <r>    -7.6624     0.0000     2.0000 </r>
       <r>    -7.5663     0.0000     2.0000 </r>
       <r>    -7.4702     0.0000     2.0000 </r>
       <r>    -7.3741     0.0000     2.0000 </r>
       <r>    -7.2780     0.0000     2.0000 </r>
       <r>    -7.1819     0.0000     2.0000 </r>
       <r>    -7.0858     0.0000     2.0000 </r>
       <r>    -6.9897     0.0000     2.0000 </r>
       <r>    -6.8937     0.0000     2.0000 </r>
       <r>    -6.7976     0.0000     2.0000 </r>
       <r>    -6.7015     0.0000     2.0000 </r>
       <r>    -6.6054     0.2570     2.0247 </r>
       <r>    -6.5093     1.5417     2.1728 </r>
       <r>    -6.4132     0.0000     2.1728 </r>
       <r>    -6.3171     1.5418     2.3210 </r>
       <r>    -6.2210     1.5417     2.4691 </r>
       <r>    -6.1249     0.0000     2.4691 </r>
       <r>    -6.0288     0.0026     2.4694 </r>
       <r>    -5.9327     3.0809     2.7654 </r>
       <r>    -5.8367     0.0295     2.7683 </r>
       <r>    -5.7406     0.0000     2.9136 </r>
       <r>    -5.6445     0.0000     2.9136 </r>
       <r>    -5.5484     0.7552     2.9861 </r>
       <r>    -5.4523     2.6899     3.3202 </r>
       <r>    -5.3562     0.0691     3.3647 </r>
       <r>    -5.2601     1.1449     3.4927 </r>
       <r>    -5.1640     1.5417     3.6790 </r>
       <r>    -5.0679     1.5415     3.8271 </r>
       <r>    -4.9718     1.5418     3.9753 </r>
       <r>    -4.8757     3.0835     4.2716 </r>
       <r>    -4.7796     1.5885     4.4242 </r>
       <r>    -4.6836     1.5417     4.8642 </r>
       <r>    -4.5875     1.5408     5.0123 </r>
       <r>    -4.4914     0.0446     5.0166 </r>
       <r>    -4.3953     0.0460     5.1649 </r>
       <r>    -4.2992     3.5999     5.6546 </r>
       <r>    -4.2031     4.1082     6.0494 </r>
       <r>    -4.1070     0.3744     6.0854 </r>
       <r>    -4.0109     2.1800     6.4070 </r>
       <r>    -3.9148     0.0873     6.5022 </r>
       <r>    -3.8187     1.5407     6.9383 </r>
       <r>    -3.7226     1.7627     7.1076 </r>
       <r>    -3.6266     3.0825     7.4073 </r>
       <r>    -3.5305     8.2227     8.1975 </r>
       <r>    -3.4344     5.1320     8.6908 </r>
       <r>    -3.3383     5.3529     9.3045 </r>
       <r>    -3.2422     5.1380     9.9258 </r>
       <r>    -3.1461     2.6099    10.1767 </r>
       <r>    -3.0500     7.1751    10.9117 </r>
       <r>    -2.9539    13.9145    12.9431 </r>
       <r>    -2.8578     6.7832    13.9111 </r>
       <r>    -2.7617     9.6225    15.0728 </r>
       <r>    -2.6656    10.0022    16.4427 </r>
       <r>    -2.5696    13.1207    17.8535 </r>
       <r>    -2.4735    15.1899    19.3133 </r>
       <r>    -2.3774    21.3431    21.7056 </r>
       <r>    -2.2813    13.3873    23.1630 </r>
       <r>    -2.1852    12.3675    24.5464 </r>
       <r>    -2.0891    12.2822    26.0203 </r>
       <r>    -1.9930    34.8866    29.5008 </r>
       <r>    -1.8969    22.9767    32.4797 </r>
       <r>    -1.8008    21.2919    36.2188 </r>
       <r>    -1.7047    23.3307    39.2789 </r>
       <r>    -1.6086    22.3862    41.6597 </r>
       <r>    -1.5126    34.3793    45.3070 </r>
       <r>    -1.4165    28.0536    48.4988 </r>
       <r>    -1.3204    25.8590    51.4505 </r>
       <r>    -1.2243    30.3523    55.4115 </r>
       <r>    -1.1282    27.1776    58.7112 </r>
       <r>    -1.0321    41.9615    63.1972 </r>
       <r>    -0.9360    42.6949    67.9074 </r>
       <r>    -0.8399    46.9412    73.1793 </r>
       <r>    -0.7438    54.4939    79.2364 </r>
       <r>    -0.6477    59.5095    86.2370 </r>
       <r>    -0.5516    59.0916    92.6424 </r>
       <r>    -0.4555    60.3901    99.3114 </r>
       <r>    -0.3595    45.1953   104.1950 </r>
       <r>    -0.2634    28.8584   107.3690 </r>
       <r>    -0.1673    58.1319   113.9851 </r>
       <r>    -0.0712    45.3392   119.2222 </r>
       <r>     0.0249    39.9942   123.7959 </r>
       <r>     0.1210    46.9899   129.1596 </r>
       <r>     0.2171    60.7114   136.1327 </r>
       <r>     0.3132    53.6847   142.0978 </r>
       <r>     0.4093    51.5803   148.2656 </r>
       <r>     0.5054    65.2577   155.8511 </r>
       <r>     0.6015    78.2780   164.3173 </r>
       <r>     0.6975    44.1804   169.2357 </r>
       <r>     0.7936    15.6392   170.9389 </r>
       <r>     0.8897     9.3237   172.2540 </r>
       <r>     0.9858     7.1122   173.0538 </r>
       <r>     1.0819     9.2258   174.1458 </r>
       <r>     1.1780    10.7261   175.4758 </r>
       <r>     1.2741     3.1769   176.1823 </r>
       <r>     1.3702     8.9114   177.0538 </r>
       <r>     1.4663     7.1015   177.9663 </r>
       <r>     1.5624     8.1677   178.8844 </r>
       <r>     1.6585     0.0000   179.2099 </r>
       <r>     1.7545     0.4178   179.2500 </r>
       <r>     1.8506     3.1951   179.8132 </r>
       <r>     1.9467     2.6495   180.1064 </r>
       <r>     2.0428     7.8519   181.0511 </r>
       <r>     2.1389     9.9638   182.0458 </r>
       <r>     2.2350     7.7000   182.7893 </r>
       <r>     2.3311     4.2436   183.1979 </r>
       <r>     2.4272     6.1669   183.8272 </r>
       <r>     2.5233     1.5417   183.9753 </r>
       <r>     2.6194     1.7987   184.1481 </r>
       <r>     2.7155     0.5254   184.1986 </r>
       <r>     2.8115     7.1113   185.0290 </r>
       <r>     2.9076    12.0532   186.3928 </r>
       <r>     3.0037     0.0000   186.4198 </r>
       <r>     3.0998     4.4454   186.8469 </r>
       <r>     3.1959     7.6072   187.7927 </r>
       <r>     3.2920     3.0672   188.1219 </r>
       <r>     3.3881     3.0822   188.4196 </r>
       <r>     3.4842     1.5417   188.5679 </r>
       <r>     3.5803     6.8738   189.2284 </r>
       <r>     3.6764     2.3033   189.9747 </r>
       <r>     3.7725     4.9135   190.4475 </r>
       <r>     3.8685     3.0835   190.9136 </r>
       <r>     3.9646     2.9602   191.1980 </r>
       <r>     4.0607     2.2895   191.4794 </r>
       <r>     4.1568     9.2505   192.4938 </r>
       <r>     4.2529     2.3882   192.7233 </r>
       <r>     4.3490     1.3981   192.9245 </r>
       <r>     4.4451     6.1906   193.6813 </r>
       <r>     4.5412     4.7368   194.1365 </r>
       <r>     4.6373     2.0550   194.6172 </r>
       <r>     4.7334     4.3348   195.0338 </r>
       <r>     4.8295     6.1667   195.6543 </r>
       <r>     4.9256     0.0000   195.6543 </r>
       <r>     5.0216     4.4076   196.0779 </r>
       <r>     5.1177     2.0149   196.4405 </r>
       <r>     5.2138     3.0814   197.1356 </r>
       <r>     5.3099     1.9157   197.3199 </r>
       <r>     5.4060     4.6144   197.8755 </r>
       <r>     5.5021     1.5418   198.0247 </r>
       <r>     5.5982     7.2936   198.7256 </r>
       <r>     5.6943     0.5090   198.8148 </r>
       <r>     5.7904     2.0692   199.0136 </r>
       <r>     5.8865     0.5033   199.0854 </r>
       <r>     5.9826     4.7671   199.5445 </r>
       <r>     6.0786     0.9104   199.6924 </r>
       <r>     6.1747     3.3299   200.1728 </r>
       <r>     6.2708     0.1669   200.1889 </r>
       <r>     6.3669     5.5775   200.7830 </r>
       <r>     6.4630     4.4101   201.3868 </r>
       <r>     6.5591     4.5971   201.9236 </r>
       <r>     6.6552     2.1848   202.1359 </r>
       <r>     6.7513     5.6645   202.6802 </r>
       <r>     6.8474     1.9721   202.8932 </r>
       <r>     6.9435     1.7195   203.0912 </r>
       <r>     7.0396     8.6112   204.1366 </r>
       <r>     7.1356     3.7828   204.5611 </r>
       <r>     7.2317     3.8498   205.0123 </r>
       <r>     7.3278     2.3124   205.2346 </r>
       <r>     7.4239     2.7467   205.4985 </r>
       <r>     7.5200     5.0937   206.2678 </r>
       <r>     7.6161     7.9285   207.1075 </r>
       <r>     7.7122     5.5639   207.7816 </r>
       <r>     7.8083     4.5843   208.3541 </r>
       <r>     7.9044     5.4184   209.1506 </r>
       <r>     8.0005     2.5703   209.4692 </r>
       <r>     8.0966     8.7252   210.3076 </r>
       <r>     8.1926     6.3463   210.9185 </r>
       <r>     8.2887     2.4149   211.5037 </r>
       <r>     8.3848     6.1593   212.1600 </r>
       <r>     8.4809     4.7058   212.8349 </r>
       <r>     8.5770     4.4907   213.3574 </r>
       <r>     8.6731     6.9927   214.0546 </r>
       <r>     8.7692     4.6716   214.6217 </r>
       <r>     8.8653     2.3740   215.1295 </r>
       <r>     8.9614     5.1880   215.6344 </r>
       <r>     9.0575     4.1112   216.0494 </r>
       <r>     9.1536     4.1791   216.4510 </r>
       <r>     9.2496     4.9503   217.0683 </r>
       <r>     9.3457     7.5975   217.8659 </r>
       <r>     9.4418     5.1521   218.3725 </r>
       <r>     9.5379     4.0668   218.9093 </r>
       <r>     9.6340     0.6128   219.0959 </r>
       <r>     9.7301     3.7789   219.6224 </r>
       <r>     9.8262     2.4256   219.8628 </r>
       <r>     9.9223     0.0000   219.9259 </r>
       <r>    10.0184     0.0000   219.9259 </r>
       <r>    10.1145     0.0000   219.9259 </r>
       <r>    10.2106     0.7709   220.0000 </r>
       <r>    10.3067     0.0000   220.0000 </r>
       <r>    10.4027     0.0000   220.0000 </r>
       <r>    10.4988     0.0000   220.0000 </r>
       <r>    10.5949     0.0000   220.0000 </r>
       <r>    10.6910     0.0000   220.0000 </r>
       <r>    10.7871     0.0000   220.0000 </r>
       <r>    10.8832     0.0000   220.0000 </r>
       <r>    10.9793     0.0000   220.0000 </r>
       <r>    11.0754     0.0000   220.0000 </r>
       <r>    11.1715     0.0000   220.0000 </r>
       <r>    11.2676     0.0000   220.0000 </r>
       <r>    11.3637     0.0000   220.0000 </r>
       <r>    11.4597     0.0000   220.0000 </r>
      </set>
     </set>
    </array>
   </total>
  </dos>
 </calculation>
 <structure name="finalpos" >
  <crystal>
   <varray name="basis" >
    <v>       4.42708529      -2.55597888       0.00000000 </v>
    <v>       0.00000000       5.11195776       0.00000000 </v>
    <v>       0.00000000       0.00000000      15.00000000 </v>
   </varray>
   <i name="volume">    339.46609504 </i>
   <varray name="rec_basis" >
    <v>       0.22588225       0.00000000       0.00000000 </v>
    <v>       0.11294113       0.19561977       0.00000000 </v>
    <v>       0.00000000       0.00000000       0.06666667 </v>
   </varray>
  </crystal>
  <varray name="positions" >
   <v>       0.00000000       0.00000000       0.00000000 </v>
   <v>       0.83185832       0.66813653       0.27860170 </v>
   <v>       0.50478090       0.50955660       0.42137676 </v>
   <v>       0.50000000       0.50000000       0.00000000 </v>
   <v>       0.16666667       0.83333333       0.13912987 </v>
   <v>       0.33626678       0.66813242       0.27860214 </v>
   <v>      -0.00000068       0.49999827       0.41162695 </v>
   <v>       0.66666667       0.83333333       0.13912987 </v>
   <v>       0.00000000       0.50000000       0.00000000 </v>
   <v>       0.83186287       0.16372917       0.27860078 </v>
   <v>       0.50476582       0.99522523       0.42138232 </v>
   <v>       0.50000000       0.00000000       0.00000000 </v>
   <v>       0.16666667       0.33333333       0.13912987 </v>
   <v>       0.33333167       0.16666448       0.27657997 </v>
   <v>       0.99045243       0.99521939       0.42137835 </v>
   <v>       0.66666667       0.33333333       0.13912987 </v>
   <v>       0.33332178       0.16670140       0.49716416 </v>
  </varray>
  <varray name="selective"  type="logical" >
   <v type="logical" >  F  F  F </v>
   <v type="logical" >  T  T  T </v>
   <v type="logical" >  T  T  T </v>
   <v type="logical" >  F  F  F </v>
   <v type="logical" >  F  F  F </v>
   <v type="logical" >  T  T  T </v>
   <v type="logical" >  T  T  T </v>
   <v type="logical" >  F  F  F </v>
   <v type="logical" >  F  F  F </v>
   <v type="logical" >  T  T  T </v>
   <v type="logical" >  T  T  T </v>
   <v type="logical" >  F  F  F </v>
   <v type="logical" >  F  F  F </v>
   <v type="logical" >  T  T  T </v>
   <v type="logical" >  T  T  T </v>
   <v type="logical" >  F  F  F </v>
   <v type="logical" >  T  T  T </v>
  </varray>
  <nose>
   <v>      -3.00000000       0.00000000       0.00010000       0.00010000 </v>
  </nose>
 </structure>
</modeling>
