TS                                      
           1
     4.427085   -2.555979    0.000000
     0.000000    5.111958    0.000000
     0.000000    0.000000   15.000000
   Cu   O 
  16   1
Direct configuration=     1
   0.00000000  0.00000000  0.00000000
   0.83183700  0.66816300  0.27893398
   0.50499763  0.50999528  0.42215032
   0.50000000  0.50000000  0.00000000
   0.16666667  0.83333333  0.13912987
   0.33632600  0.66816300  0.27893398
   0.00000000  0.50000000  0.41204331
   0.66666667  0.83333333  0.13912987
   0.00000000  0.50000000  0.00000000
   0.83183700  0.16367400  0.27893398
   0.50499763  0.99500237  0.42215032
   0.50000000  0.00000000  0.00000000
   0.16666667  0.33333333  0.13912987
   0.33333333  0.16666667  0.27697670
   0.99000472  0.99500237  0.42215032
   0.66666667  0.33333333  0.13912987
   0.33333333  0.16666667  0.49767053
Direct configuration=     2
   0.00000000  0.00000000  0.00000000
   0.83184696  0.66815297  0.27891441
   0.50491401  0.50982864  0.42208141
   0.50000000  0.50000000  0.00000000
   0.16666667  0.83333333  0.13912987
   0.33630417  0.66815170  0.27891461
   0.00000036  0.50000052  0.41200858
   0.66666667  0.83333333  0.13912987
   0.00000000  0.50000000  0.00000000
   0.83184805  0.16369543  0.27891443
   0.50491517  0.99508473  0.42208137
   0.50000000  0.00000000  0.00000000
   0.16666667  0.33333333  0.13912987
   0.33333320  0.16666726  0.27692649
   0.99017061  0.99508562  0.42208135
   0.66666667  0.33333333  0.13912987
   0.33333341  0.16666696  0.49776128
Direct configuration=     3
   0.00000000  0.00000000  0.00000000
   0.83187683  0.66812289  0.27885571
   0.50466312  0.50932872  0.42187466
   0.50000000  0.50000000  0.00000000
   0.16666667  0.83333333  0.13912987
   0.33623868  0.66811780  0.27885651
   0.00000143  0.50000208  0.41190439
   0.66666667  0.83333333  0.13912987
   0.00000000  0.50000000  0.00000000
   0.83188119  0.16375974  0.27885578
   0.50466776  0.99533183  0.42187452
   0.50000000  0.00000000  0.00000000
   0.16666667  0.33333333  0.13912987
   0.33333278  0.16666905  0.27677588
   0.99066827  0.99533537  0.42187443
   0.66666667  0.33333333  0.13912987
   0.33333363  0.16666783  0.49803351
Direct configuration=     4
   0.00000000  0.00000000  0.00000000
   0.83188147  0.66811821  0.27884658
   0.50462412  0.50925099  0.42184251
   0.50000000  0.50000000  0.00000000
   0.16666667  0.83333333  0.13912987
   0.33622850  0.66811253  0.27884748
   0.00000160  0.50000233  0.41188819
   0.66666667  0.83333333  0.13912987
   0.00000000  0.50000000  0.00000000
   0.83188635  0.16376974  0.27884666
   0.50462930  0.99537025  0.42184236
   0.50000000  0.00000000  0.00000000
   0.16666667  0.33333333  0.13912987
   0.33333272  0.16666933  0.27675246
   0.99074565  0.99537420  0.42184226
   0.66666667  0.33333333  0.13912987
   0.33333366  0.16666797  0.49807584
Direct configuration=     5
   0.00000000  0.00000000  0.00000000
   0.83183602  0.66816373  0.27880194
   0.50449375  0.50898823  0.42182988
   0.50000000  0.50000000  0.00000000
   0.16666667  0.83333333  0.13912987
   0.33631913  0.66815963  0.27880254
   0.00000049  0.50000284  0.41186722
   0.66666667  0.83333333  0.13912987
   0.00000000  0.50000000  0.00000000
   0.83183930  0.16367918  0.27880187
   0.50449671  0.99550313  0.42183026
   0.50000000  0.00000000  0.00000000
   0.16666667  0.33333333  0.13912987
   0.33333331  0.16666846  0.27670970
   0.99100972  0.99550541  0.42182970
   0.66666667  0.33333333  0.13912987
   0.33333365  0.16666585  0.49802917
Direct configuration=     6
   0.00000000  0.00000000  0.00000000
   0.83185848  0.66814123  0.27882400
   0.50455817  0.50911808  0.42183612
   0.50000000  0.50000000  0.00000000
   0.16666667  0.83333333  0.13912987
   0.33627434  0.66813636  0.27882475
   0.00000104  0.50000258  0.41187759
   0.66666667  0.83333333  0.13912987
   0.00000000  0.50000000  0.00000000
   0.83186255  0.16372393  0.27882400
   0.50456223  0.99543746  0.42183624
   0.50000000  0.00000000  0.00000000
   0.16666667  0.33333333  0.13912987
   0.33333302  0.16666889  0.27673083
   0.99087922  0.99544057  0.42183591
   0.66666667  0.33333333  0.13912987
   0.33333366  0.16666690  0.49805223
Direct configuration=     7
   0.00000000  0.00000000  0.00000000
   0.83183425  0.66816561  0.27880446
   0.50457798  0.50915705  0.42183041
   0.50000000  0.50000000  0.00000000
   0.16666667  0.83333333  0.13912987
   0.33632516  0.66816302  0.27880497
   0.00000026  0.50000271  0.41186291
   0.66666667  0.83333333  0.13912987
   0.00000000  0.50000000  0.00000000
   0.83183605  0.16367331  0.27880440
   0.50458104  0.99541905  0.42183079
   0.50000000  0.00000000  0.00000000
   0.16666667  0.33333333  0.13912987
   0.33333314  0.16666839  0.27671675
   0.99084117  0.99542142  0.42183019
   0.66666667  0.33333333  0.13912987
   0.33333339  0.16666523  0.49802649
Direct configuration=     8
   0.00000000  0.00000000  0.00000000
   0.83179564  0.66820445  0.27877332
   0.50460954  0.50921914  0.42182130
   0.50000000  0.50000000  0.00000000
   0.16666667  0.83333333  0.13912987
   0.33640613  0.66820549  0.27877347
  -0.00000099  0.50000290  0.41183952
   0.66666667  0.83333333  0.13912987
   0.00000000  0.50000000  0.00000000
   0.83179384  0.16359267  0.27877317
   0.50461101  0.99538971  0.42182211
   0.50000000  0.00000000  0.00000000
   0.16666667  0.33333333  0.13912987
   0.33333334  0.16666760  0.27669432
   0.99078056  0.99539093  0.42182108
   0.66666667  0.33333333  0.13912987
   0.33333297  0.16666258  0.49798548
Direct configuration=     9
   0.00000000  0.00000000  0.00000000
   0.83179678  0.66820337  0.27876420
   0.50461248  0.50922533  0.42181447
   0.50000000  0.50000000  0.00000000
   0.16666667  0.83333333  0.13912987
   0.33640379  0.66820442  0.27876438
  -0.00000108  0.50000291  0.41182087
   0.66666667  0.83333333  0.13912987
   0.00000000  0.50000000  0.00000000
   0.83179499  0.16359512  0.27876414
   0.50461466  0.99538634  0.42181517
   0.50000000  0.00000000  0.00000000
   0.16666667  0.33333333  0.13912987
   0.33333315  0.16666780  0.27668856
   0.99077406  0.99538798  0.42181409
   0.66666667  0.33333333  0.13912987
   0.33333268  0.16666196  0.49795662
Direct configuration=    10
   0.00000000  0.00000000  0.00000000
   0.83180020  0.66820013  0.27873683
   0.50462130  0.50924391  0.42179399
   0.50000000  0.50000000  0.00000000
   0.16666667  0.83333333  0.13912987
   0.33639677  0.66820122  0.27873712
  -0.00000135  0.50000295  0.41176491
   0.66666667  0.83333333  0.13912987
   0.00000000  0.50000000  0.00000000
   0.83179843  0.16360248  0.27873703
   0.50462563  0.99537622  0.42179437
   0.50000000  0.00000000  0.00000000
   0.16666667  0.33333333  0.13912987
   0.33333257  0.16666841  0.27667128
   0.99075457  0.99537915  0.42179311
   0.66666667  0.33333333  0.13912987
   0.33333184  0.16666010  0.49787003
Direct configuration=    11
   0.00000000  0.00000000  0.00000000
   0.83180704  0.66819364  0.27868210
   0.50463893  0.50928107  0.42175302
   0.50000000  0.50000000  0.00000000
   0.16666667  0.83333333  0.13912987
   0.33638274  0.66819482  0.27868259
  -0.00000188  0.50000302  0.41165299
   0.66666667  0.83333333  0.13912987
   0.00000000  0.50000000  0.00000000
   0.83180532  0.16361719  0.27868282
   0.50464757  0.99535598  0.42175276
   0.50000000  0.00000000  0.00000000
   0.16666667  0.33333333  0.13912987
   0.33333141  0.16666961  0.27663671
   0.99071558  0.99536148  0.42175116
   0.66666667  0.33333333  0.13912987
   0.33333014  0.16665639  0.49769685
Direct configuration=    12
   0.00000000  0.00000000  0.00000000
   0.83180885  0.66819185  0.27867718
   0.50464734  0.50929809  0.42174412
   0.50000000  0.50000000  0.00000000
   0.16666667  0.83333333  0.13912987
   0.33637879  0.66819283  0.27867771
  -0.00000185  0.50000313  0.41164000
   0.66666667  0.83333333  0.13912987
   0.00000000  0.50000000  0.00000000
   0.83180735  0.16362123  0.27867793
   0.50465643  0.99534721  0.42174376
   0.50000000  0.00000000  0.00000000
   0.16666667  0.33333333  0.13912987
   0.33333130  0.16666982  0.27663411
   0.99069826  0.99535297  0.42174213
   0.66666667  0.33333333  0.13912987
   0.33332988  0.16665576  0.49767731
Direct configuration=    13
   0.00000000  0.00000000  0.00000000
   0.83181427  0.66818648  0.27866240
   0.50467257  0.50934914  0.42171740
   0.50000000  0.50000000  0.00000000
   0.16666667  0.83333333  0.13912987
   0.33636694  0.66818688  0.27866305
  -0.00000175  0.50000345  0.41160104
   0.66666667  0.83333333  0.13912987
   0.00000000  0.50000000  0.00000000
   0.83181346  0.16363335  0.27866327
   0.50468303  0.99532088  0.42171676
   0.50000000  0.00000000  0.00000000
   0.16666667  0.33333333  0.13912987
   0.33333096  0.16667045  0.27662630
   0.99064631  0.99532743  0.42171503
   0.66666667  0.33333333  0.13912987
   0.33332909  0.16665388  0.49761870
Direct configuration=    14
   0.00000000  0.00000000  0.00000000
   0.83182512  0.66817573  0.27863284
   0.50472303  0.50945123  0.42166398
   0.50000000  0.50000000  0.00000000
   0.16666667  0.83333333  0.13912987
   0.33634324  0.66817498  0.27863374
  -0.00000155  0.50000409  0.41152312
   0.66666667  0.83333333  0.13912987
   0.00000000  0.50000000  0.00000000
   0.83182567  0.16365760  0.27863394
   0.50473622  0.99526822  0.42166277
   0.50000000  0.00000000  0.00000000
   0.16666667  0.33333333  0.13912987
   0.33333029  0.16667171  0.27661068
   0.99054240  0.99527635  0.42166083
   0.66666667  0.33333333  0.13912987
   0.33332751  0.16665012  0.49750146
Direct configuration=    15
   0.00000000  0.00000000  0.00000000
   0.83184682  0.66815424  0.27857372
   0.50482394  0.50965543  0.42155712
   0.50000000  0.50000000  0.00000000
   0.16666667  0.83333333  0.13912987
   0.33629584  0.66815117  0.27857513
  -0.00000115  0.50000537  0.41136728
   0.66666667  0.83333333  0.13912987
   0.00000000  0.50000000  0.00000000
   0.83185009  0.16370609  0.27857527
   0.50484259  0.99516291  0.42155478
   0.50000000  0.00000000  0.00000000
   0.16666667  0.33333333  0.13912987
   0.33332894  0.16667424  0.27657943
   0.99033459  0.99517419  0.42155243
   0.66666667  0.33333333  0.13912987
   0.33332435  0.16664260  0.49726700
Direct configuration=    16
   0.00000000  0.00000000  0.00000000
   0.83189021  0.66811126  0.27845547
   0.50502577  0.51006382  0.42134341
   0.50000000  0.50000000  0.00000000
   0.16666667  0.83333333  0.13912987
   0.33620104  0.66810356  0.27845790
  -0.00000035  0.50000793  0.41105560
   0.66666667  0.83333333  0.13912987
   0.00000000  0.50000000  0.00000000
   0.83189893  0.16380306  0.27845795
   0.50505535  0.99495228  0.42133879
   0.50000000  0.00000000  0.00000000
   0.16666667  0.33333333  0.13912987
   0.33332625  0.16667929  0.27651694
   0.98991896  0.99496988  0.42133563
   0.66666667  0.33333333  0.13912987
   0.33331803  0.16662756  0.49679806
Direct configuration=    17
   0.00000000  0.00000000  0.00000000
   0.83185182  0.66814928  0.27856007
   0.50484724  0.50970256  0.42153246
   0.50000000  0.50000000  0.00000000
   0.16666667  0.83333333  0.13912987
   0.33628490  0.66814568  0.27856160
  -0.00000106  0.50000566  0.41133131
   0.66666667  0.83333333  0.13912987
   0.00000000  0.50000000  0.00000000
   0.83185573  0.16371728  0.27856173
   0.50486715  0.99513860  0.42152985
   0.50000000  0.00000000  0.00000000
   0.16666667  0.33333333  0.13912987
   0.33332863  0.16667482  0.27657222
   0.99028662  0.99515061  0.42152741
   0.66666667  0.33333333  0.13912987
   0.33332362  0.16664086  0.49721288
Direct configuration=    18
   0.00000000  0.00000000  0.00000000
   0.83183257  0.66816854  0.27856511
   0.50482720  0.50966064  0.42151920
   0.50000000  0.50000000  0.00000000
   0.16666667  0.83333333  0.13912987
   0.33632310  0.66816558  0.27856645
  -0.00000086  0.50000660  0.41137430
   0.66666667  0.83333333  0.13912987
   0.00000000  0.50000000  0.00000000
   0.83183599  0.16367940  0.27856626
   0.50484476  0.99516006  0.42151656
   0.50000000  0.00000000  0.00000000
   0.16666667  0.33333333  0.13912987
   0.33332968  0.16667437  0.27658360
   0.99032784  0.99516983  0.42151416
   0.66666667  0.33333333  0.13912987
   0.33332317  0.16663771  0.49717357
Direct configuration=    19
   0.00000000  0.00000000  0.00000000
   0.83182163  0.66817947  0.27856798
   0.50481582  0.50963682  0.42151167
   0.50000000  0.50000000  0.00000000
   0.16666667  0.83333333  0.13912987
   0.33634480  0.66817689  0.27856920
  -0.00000075  0.50000712  0.41139872
   0.66666667  0.83333333  0.13912987
   0.00000000  0.50000000  0.00000000
   0.83182479  0.16365788  0.27856883
   0.50483205  0.99517225  0.42150900
   0.50000000  0.00000000  0.00000000
   0.16666667  0.33333333  0.13912987
   0.33333028  0.16667411  0.27659007
   0.99035126  0.99518074  0.42150664
   0.66666667  0.33333333  0.13912987
   0.33332291  0.16663591  0.49715124
Direct configuration=    20
   0.00000000  0.00000000  0.00000000
   0.83180961  0.66819169  0.27857459
   0.50481728  0.50963808  0.42148072
   0.50000000  0.50000000  0.00000000
   0.16666667  0.83333333  0.13912987
   0.33636827  0.66818944  0.27857561
  -0.00000041  0.50000795  0.41145135
   0.66666667  0.83333333  0.13912987
   0.00000000  0.50000000  0.00000000
   0.83181268  0.16363505  0.27857489
   0.50483213  0.99517128  0.42147759
   0.50000000  0.00000000  0.00000000
   0.16666667  0.33333333  0.13912987
   0.33333141  0.16667381  0.27659824
   0.99034806  0.99517785  0.42147552
   0.66666667  0.33333333  0.13912987
   0.33332170  0.16663111  0.49716260
Direct configuration=    21
   0.00000000  0.00000000  0.00000000
   0.83178639  0.66821529  0.27858736
   0.50482010  0.50964053  0.42142093
   0.50000000  0.50000000  0.00000000
   0.16666667  0.83333333  0.13912987
   0.33641359  0.66821367  0.27858801
   0.00000024  0.50000953  0.41155301
   0.66666667  0.83333333  0.13912987
   0.00000000  0.50000000  0.00000000
   0.83178929  0.16359094  0.27858660
   0.50483231  0.99516940  0.42141689
   0.50000000  0.00000000  0.00000000
   0.16666667  0.33333333  0.13912987
   0.33333360  0.16667323  0.27661404
   0.99034187  0.99517227  0.42141542
   0.66666667  0.33333333  0.13912987
   0.33331937  0.16662183  0.49718454
Direct configuration=    22
   0.00000000  0.00000000  0.00000000
   0.83179151  0.66821009  0.27858455
   0.50481948  0.50963999  0.42143411
   0.50000000  0.50000000  0.00000000
   0.16666667  0.83333333  0.13912987
   0.33640360  0.66820833  0.27858528
   0.00000010  0.50000918  0.41153061
   0.66666667  0.83333333  0.13912987
   0.00000000  0.50000000  0.00000000
   0.83179444  0.16360066  0.27858402
   0.50483227  0.99516981  0.42143027
   0.50000000  0.00000000  0.00000000
   0.16666667  0.33333333  0.13912987
   0.33333312  0.16667335  0.27661056
   0.99034324  0.99517350  0.42142867
   0.66666667  0.33333333  0.13912987
   0.33331989  0.16662387  0.49717970
Direct configuration=    23
   0.00000000  0.00000000  0.00000000
   0.83180063  0.66819081  0.27859324
   0.50479050  0.50958163  0.42140534
   0.50000000  0.50000000  0.00000000
   0.16666667  0.83333333  0.13912987
   0.33637371  0.66818840  0.27859384
  -0.00000302  0.50000217  0.41158833
   0.66666667  0.83333333  0.13912987
   0.00000000  0.50000000  0.00000000
   0.83180455  0.16362102  0.27859229
   0.50480502  0.99518591  0.42140038
   0.50000000  0.00000000  0.00000000
   0.16666667  0.33333333  0.13912987
   0.33333027  0.16666655  0.27661127
   0.99038685  0.99518951  0.42139952
   0.66666667  0.33333333  0.13912987
   0.33337428  0.16673121  0.49717182
Direct configuration=    24
   0.00000000  0.00000000  0.00000000
   0.83179974  0.66819268  0.27859239
   0.50479332  0.50958730  0.42140814
   0.50000000  0.50000000  0.00000000
   0.16666667  0.83333333  0.13912987
   0.33637662  0.66819034  0.27859301
  -0.00000272  0.50000285  0.41158271
   0.66666667  0.83333333  0.13912987
   0.00000000  0.50000000  0.00000000
   0.83180357  0.16361904  0.27859149
   0.50480767  0.99518434  0.42140329
   0.50000000  0.00000000  0.00000000
   0.16666667  0.33333333  0.13912987
   0.33333055  0.16666721  0.27661120
   0.99038261  0.99518796  0.42140235
   0.66666667  0.33333333  0.13912987
   0.33336899  0.16672077  0.49717259
Direct configuration=    25
   0.00000000  0.00000000  0.00000000
   0.83183026  0.66816409  0.27860117
   0.50476879  0.50953400  0.42138599
   0.50000000  0.50000000  0.00000000
   0.16666667  0.83333333  0.13912987
   0.33632079  0.66816048  0.27860172
  -0.00000034  0.50000149  0.41162737
   0.66666667  0.83333333  0.13912987
   0.00000000  0.50000000  0.00000000
   0.83183528  0.16367661  0.27859990
   0.50477378  0.99521664  0.42138392
   0.50000000  0.00000000  0.00000000
   0.16666667  0.33333333  0.13912987
   0.33333220  0.16666606  0.27660436
   0.99045572  0.99522156  0.42138385
   0.66666667  0.33333333  0.13912987
   0.33332586  0.16671237  0.49714434
Direct configuration=    26
   0.00000000  0.00000000  0.00000000
   0.83182503  0.66816899  0.27859967
   0.50477300  0.50954314  0.42138979
   0.50000000  0.50000000  0.00000000
   0.16666667  0.83333333  0.13912987
   0.33633036  0.66816560  0.27860022
  -0.00000075  0.50000173  0.41161971
   0.66666667  0.83333333  0.13912987
   0.00000000  0.50000000  0.00000000
   0.83182984  0.16366673  0.27859846
   0.50477959  0.99521110  0.42138725
   0.50000000  0.00000000  0.00000000
   0.16666667  0.33333333  0.13912987
   0.33333192  0.16666625  0.27660554
   0.99044318  0.99521580  0.42138702
   0.66666667  0.33333333  0.13912987
   0.33333326  0.16671381  0.49714919
Direct configuration=    27
   0.00000000  0.00000000  0.00000000
   0.83184160  0.66815258  0.27860106
   0.50477704  0.50954986  0.42138343
   0.50000000  0.50000000  0.00000000
   0.16666667  0.83333333  0.13912987
   0.33629819  0.66814870  0.27860153
  -0.00000066  0.50000037  0.41162357
   0.66666667  0.83333333  0.13912987
   0.00000000  0.50000000  0.00000000
   0.83184662  0.16369851  0.27859983
   0.50477279  0.99521716  0.42138463
   0.50000000  0.00000000  0.00000000
   0.16666667  0.33333333  0.13912987
   0.33333177  0.16666546  0.27659498
   0.99044836  0.99521733  0.42138286
   0.66666667  0.33333333  0.13912987
   0.33332742  0.16670732  0.49715467
Direct configuration=    28
   0.00000000  0.00000000  0.00000000
   0.83185933  0.66813502  0.27860256
   0.50478137  0.50955705  0.42137662
   0.50000000  0.50000000  0.00000000
   0.16666667  0.83333333  0.13912987
   0.33626375  0.66813060  0.27860292
  -0.00000056  0.49999892  0.41162770
   0.66666667  0.83333333  0.13912987
   0.00000000  0.50000000  0.00000000
   0.83186459  0.16373252  0.27860130
   0.50476552  0.99522365  0.42138183
   0.50000000  0.00000000  0.00000000
   0.16666667  0.33333333  0.13912987
   0.33333162  0.16666461  0.27658367
   0.99045391  0.99521897  0.42137841
   0.66666667  0.33333333  0.13912987
   0.33332117  0.16670038  0.49716053
Direct configuration=    29
   0.00000000  0.00000000  0.00000000
   0.83185756  0.66813768  0.27860106
   0.50478055  0.50955625  0.42137687
   0.50000000  0.50000000  0.00000000
   0.16666667  0.83333333  0.13912987
   0.33626907  0.66813379  0.27860155
  -0.00000076  0.49999777  0.41162638
   0.66666667  0.83333333  0.13912987
   0.00000000  0.50000000  0.00000000
   0.83186157  0.16372663  0.27860039
   0.50476605  0.99522642  0.42138268
   0.50000000  0.00000000  0.00000000
   0.16666667  0.33333333  0.13912987
   0.33333171  0.16666437  0.27657717
   0.99045130  0.99521970  0.42137831
   0.66666667  0.33333333  0.13912987
   0.33332224  0.16670217  0.49716691
Direct configuration=    30
   0.00000000  0.00000000  0.00000000
   0.83185832  0.66813653  0.27860170
   0.50478090  0.50955660  0.42137676
   0.50000000  0.50000000  0.00000000
   0.16666667  0.83333333  0.13912987
   0.33626678  0.66813242  0.27860214
  -0.00000068  0.49999827  0.41162695
   0.66666667  0.83333333  0.13912987
   0.00000000  0.50000000  0.00000000
   0.83186287  0.16372917  0.27860078
   0.50476582  0.99522523  0.42138232
   0.50000000  0.00000000  0.00000000
   0.16666667  0.33333333  0.13912987
   0.33333167  0.16666448  0.27657997
   0.99045243  0.99521939  0.42137835
   0.66666667  0.33333333  0.13912987
   0.33332178  0.16670140  0.49716416
