  56  56   0   0
  0.1428571E+03  0.2000000E-08  0.2000000E-08  0.2000000E-08  0.0000000E+00
  1.000000000000000E-004
  CAR 
 neb_test                                
      0.36916431    -17.72118350  301     -3.96603142      1.00000000
    -17.721  0.0000E+00  0.0000E+00
    -17.661  0.0000E+00  0.0000E+00
    -17.601  0.0000E+00  0.0000E+00
    -17.540  0.0000E+00  0.0000E+00
    -17.480  0.0000E+00  0.0000E+00
    -17.420  0.0000E+00  0.0000E+00
    -17.359  0.0000E+00  0.0000E+00
    -17.299  0.0000E+00  0.0000E+00
    -17.239  0.0000E+00  0.0000E+00
    -17.178  0.8837E-16  0.5329E-17
    -17.118  0.1848E-10  0.1114E-11
    -17.058  0.2291E-06  0.1382E-07
    -16.998  0.1741E-03  0.1051E-04
    -16.937  0.9038E-02  0.5555E-03
    -16.877  0.3937E-01  0.2930E-02
    -16.817  0.1708E-01  0.3960E-02
    -16.756  0.6625E-03  0.4000E-02
    -16.696  0.1839E-05  0.4000E-02
    -16.636  0.3197E-09  0.4000E-02
    -16.575  0.3277E-14  0.4000E-02
    -16.515  0.0000E+00  0.4000E-02
    -16.455  0.0000E+00  0.4000E-02
    -16.395  0.0000E+00  0.4000E-02
    -16.334  0.0000E+00  0.4000E-02
    -16.274  0.0000E+00  0.4000E-02
    -16.214  0.0000E+00  0.4000E-02
    -16.153  0.0000E+00  0.4000E-02
    -16.093  0.0000E+00  0.4000E-02
    -16.033  0.0000E+00  0.4000E-02
    -15.972  0.0000E+00  0.4000E-02
    -15.912  0.0000E+00  0.4000E-02
    -15.852  0.0000E+00  0.4000E-02
    -15.792  0.0000E+00  0.4000E-02
    -15.731  0.0000E+00  0.4000E-02
    -15.671  0.0000E+00  0.4000E-02
    -15.611  0.0000E+00  0.4000E-02
    -15.550  0.0000E+00  0.4000E-02
    -15.490  0.0000E+00  0.4000E-02
    -15.430  0.0000E+00  0.4000E-02
    -15.369  0.0000E+00  0.4000E-02
    -15.309  0.0000E+00  0.4000E-02
    -15.249  0.0000E+00  0.4000E-02
    -15.189  0.0000E+00  0.4000E-02
    -15.128  0.0000E+00  0.4000E-02
    -15.068  0.0000E+00  0.4000E-02
    -15.008  0.0000E+00  0.4000E-02
    -14.947  0.0000E+00  0.4000E-02
    -14.887  0.0000E+00  0.4000E-02
    -14.827  0.0000E+00  0.4000E-02
    -14.766  0.0000E+00  0.4000E-02
    -14.706  0.0000E+00  0.4000E-02
    -14.646  0.0000E+00  0.4000E-02
    -14.586  0.0000E+00  0.4000E-02
    -14.525  0.0000E+00  0.4000E-02
    -14.465  0.0000E+00  0.4000E-02
    -14.405  0.0000E+00  0.4000E-02
    -14.344  0.0000E+00  0.4000E-02
    -14.284  0.0000E+00  0.4000E-02
    -14.224  0.0000E+00  0.4000E-02
    -14.163  0.0000E+00  0.4000E-02
    -14.103  0.0000E+00  0.4000E-02
    -14.043  0.0000E+00  0.4000E-02
    -13.983  0.0000E+00  0.4000E-02
    -13.922  0.0000E+00  0.4000E-02
    -13.862  0.0000E+00  0.4000E-02
    -13.802  0.0000E+00  0.4000E-02
    -13.741  0.0000E+00  0.4000E-02
    -13.681  0.0000E+00  0.4000E-02
    -13.621  0.0000E+00  0.4000E-02
    -13.560  0.0000E+00  0.4000E-02
    -13.500  0.0000E+00  0.4000E-02
    -13.440  0.0000E+00  0.4000E-02
    -13.380  0.0000E+00  0.4000E-02
    -13.319  0.0000E+00  0.4000E-02
    -13.259  0.0000E+00  0.4000E-02
    -13.199  0.0000E+00  0.4000E-02
    -13.138  0.0000E+00  0.4000E-02
    -13.078  0.0000E+00  0.4000E-02
    -13.018  0.0000E+00  0.4000E-02
    -12.957  0.0000E+00  0.4000E-02
    -12.897  0.0000E+00  0.4000E-02
    -12.837  0.0000E+00  0.4000E-02
    -12.776  0.0000E+00  0.4000E-02
    -12.716  0.0000E+00  0.4000E-02
    -12.656  0.0000E+00  0.4000E-02
    -12.596  0.0000E+00  0.4000E-02
    -12.535  0.0000E+00  0.4000E-02
    -12.475  0.0000E+00  0.4000E-02
    -12.415  0.0000E+00  0.4000E-02
    -12.354  0.0000E+00  0.4000E-02
    -12.294  0.2865E-14  0.4000E-02
    -12.234  0.2880E-09  0.4000E-02
    -12.173  0.1706E-05  0.4000E-02
    -12.113  0.6320E-03  0.4038E-02
    -12.053  0.1673E-01  0.5047E-02
    -11.993  0.3949E-01  0.7429E-02
    -11.932  0.9290E-02  0.7989E-02
    -11.872  0.1838E-03  0.8000E-02
    -11.812  0.2489E-06  0.8000E-02
    -11.751  0.2067E-10  0.8000E-02
    -11.691  0.1031E-15  0.8000E-02
    -11.631  0.0000E+00  0.8000E-02
    -11.570  0.0000E+00  0.8000E-02
    -11.510  0.0000E+00  0.8000E-02
    -11.450  0.0000E+00  0.8000E-02
    -11.390  0.0000E+00  0.8000E-02
    -11.329  0.0000E+00  0.8000E-02
    -11.269  0.0000E+00  0.8000E-02
    -11.209  0.0000E+00  0.8000E-02
    -11.148  0.0000E+00  0.8000E-02
    -11.088  0.0000E+00  0.8000E-02
    -11.028  0.0000E+00  0.8000E-02
    -10.967  0.0000E+00  0.8000E-02
    -10.907  0.3167E-15  0.8000E-02
    -10.847  0.5235E-10  0.8000E-02
    -10.787  0.5190E-06  0.8000E-02
    -10.726  0.3353E-03  0.8020E-02
    -10.666  0.1682E-01  0.9034E-02
    -10.606  0.9124E-01  0.1454E-01
    -10.545  0.7869E-01  0.1928E-01
    -10.485  0.1171E-01  0.1999E-01
    -10.425  0.2052E-03  0.2000E-01
    -10.364  0.2768E-06  0.2000E-01
    -10.304  0.2360E-10  0.2000E-01
    -10.244  0.1178E-15  0.2000E-01
    -10.184  0.0000E+00  0.2000E-01
    -10.123  0.0000E+00  0.2000E-01
    -10.063  0.0000E+00  0.2000E-01
    -10.003  0.0000E+00  0.2000E-01
     -9.942  0.0000E+00  0.2000E-01
     -9.882  0.0000E+00  0.2000E-01
     -9.822  0.0000E+00  0.2000E-01
     -9.761  0.0000E+00  0.2000E-01
     -9.701  0.0000E+00  0.2000E-01
     -9.641  0.4830E-13  0.2000E-01
     -9.581  0.2568E-08  0.2000E-01
     -9.520  0.8127E-05  0.2000E-01
     -9.460  0.1658E-02  0.2010E-01
     -9.400  0.2883E-01  0.2184E-01
     -9.339  0.1152E+00  0.2879E-01
     -9.279  0.1574E+00  0.3828E-01
     -9.219  0.5201E-01  0.4141E-01
     -9.158  0.3700E-01  0.4365E-01
     -9.098  0.5800E-02  0.4400E-01
     -9.038  0.7451E-04  0.4400E-01
     -8.978  0.6394E-07  0.4400E-01
     -8.917  0.3328E-11  0.4400E-01
     -8.857  0.2578E-16  0.4400E-01
     -8.797  0.3904E-11  0.4400E-01
     -8.736  0.7206E-07  0.4400E-01
     -8.676  0.8089E-04  0.4400E-01
     -8.616  0.6187E-02  0.4438E-01
     -8.555  0.4469E-01  0.4707E-01
     -8.495  0.6192E-01  0.5081E-01
     -8.435  0.4879E-01  0.5375E-01
     -8.375  0.7709E-01  0.5840E-01
     -8.314  0.3163E-01  0.6030E-01
     -8.254  0.9440E-01  0.6600E-01
     -8.194  0.1811E+00  0.7692E-01
     -8.133  0.1085E+00  0.8346E-01
     -8.073  0.8514E-01  0.8860E-01
     -8.013  0.1606E+00  0.9828E-01
     -7.952  0.1294E+00  0.1061E+00
     -7.892  0.4387E-01  0.1087E+00
     -7.832  0.4150E-01  0.1112E+00
     -7.771  0.2287E-01  0.1126E+00
     -7.711  0.4537E-01  0.1153E+00
     -7.651  0.5488E-01  0.1187E+00
     -7.591  0.1096E+00  0.1253E+00
     -7.530  0.2422E+00  0.1399E+00
     -7.470  0.1818E+00  0.1508E+00
     -7.410  0.1074E+00  0.1573E+00
     -7.349  0.4239E-01  0.1599E+00
     -7.289  0.1534E-01  0.1608E+00
     -7.229  0.1303E+00  0.1687E+00
     -7.168  0.2387E+00  0.1831E+00
     -7.108  0.2384E+00  0.1974E+00
     -7.048  0.1794E+00  0.2082E+00
     -6.988  0.2607E+00  0.2240E+00
     -6.927  0.2467E+00  0.2388E+00
     -6.867  0.8275E-01  0.2438E+00
     -6.807  0.3541E-01  0.2460E+00
     -6.746  0.9226E-01  0.2515E+00
     -6.686  0.1763E+00  0.2622E+00
     -6.626  0.8994E-01  0.2676E+00
     -6.565  0.1804E-01  0.2687E+00
     -6.505  0.1143E+00  0.2756E+00
     -6.445  0.2494E+00  0.2906E+00
     -6.385  0.1611E+00  0.3003E+00
     -6.324  0.1565E+00  0.3098E+00
     -6.264  0.1536E+00  0.3190E+00
     -6.204  0.1772E+00  0.3297E+00
     -6.143  0.3778E+00  0.3525E+00
     -6.083  0.3676E+00  0.3746E+00
     -6.023  0.2087E+00  0.3872E+00
     -5.962  0.1230E+00  0.3947E+00
     -5.902  0.2730E+00  0.4111E+00
     -5.842  0.3642E+00  0.4331E+00
     -5.782  0.2182E+00  0.4462E+00
     -5.721  0.2311E+00  0.4602E+00
     -5.661  0.4653E+00  0.4882E+00
     -5.601  0.3755E+00  0.5109E+00
     -5.540  0.1439E+00  0.5195E+00
     -5.480  0.1202E+00  0.5268E+00
     -5.420  0.1251E+00  0.5343E+00
     -5.359  0.2687E+00  0.5505E+00
     -5.299  0.4284E+00  0.5764E+00
     -5.239  0.3194E+00  0.5956E+00
     -5.179  0.4270E+00  0.6214E+00
     -5.118  0.4550E+00  0.6488E+00
     -5.058  0.3540E+00  0.6702E+00
     -4.998  0.2998E+00  0.6883E+00
     -4.937  0.2836E+00  0.7054E+00
     -4.877  0.2772E+00  0.7221E+00
     -4.817  0.2287E+00  0.7359E+00
     -4.756  0.2596E+00  0.7515E+00
     -4.696  0.2906E+00  0.7690E+00
     -4.636  0.2828E+00  0.7861E+00
     -4.576  0.3777E+00  0.8089E+00
     -4.515  0.4472E+00  0.8358E+00
     -4.455  0.4565E+00  0.8634E+00
     -4.395  0.3967E+00  0.8873E+00
     -4.334  0.2899E+00  0.9048E+00
     -4.274  0.3610E+00  0.9265E+00
     -4.214  0.5738E+00  0.9611E+00
     -4.153  0.6902E+00  0.1003E+01
     -4.093  0.4297E+00  0.1029E+01
     -4.033  0.4831E+00  0.1058E+01
     -3.973  0.8054E+00  0.1106E+01
     -3.912  0.6252E+00  0.1144E+01
     -3.852  0.2555E+00  0.1159E+01
     -3.792  0.2215E+00  0.1173E+01
     -3.731  0.9283E-01  0.1178E+01
     -3.671  0.2552E-01  0.1180E+01
     -3.611  0.2072E-01  0.1181E+01
     -3.550  0.5319E-01  0.1184E+01
     -3.490  0.9350E-01  0.1190E+01
     -3.430  0.8093E-01  0.1195E+01
     -3.370  0.5302E-01  0.1198E+01
     -3.309  0.8295E-01  0.1203E+01
     -3.249  0.7034E-01  0.1207E+01
     -3.189  0.6733E-01  0.1211E+01
     -3.128  0.8954E-02  0.1212E+01
     -3.068  0.1038E-03  0.1212E+01
     -3.008  0.4283E-03  0.1212E+01
     -2.947  0.1402E-01  0.1213E+01
     -2.887  0.4077E-01  0.1215E+01
     -2.827  0.2847E-01  0.1217E+01
     -2.766  0.4840E-01  0.1220E+01
     -2.706  0.5766E-01  0.1223E+01
     -2.646  0.5769E-01  0.1227E+01
     -2.586  0.2274E-01  0.1228E+01
     -2.525  0.3661E-01  0.1230E+01
     -2.465  0.2794E-01  0.1232E+01
     -2.405  0.3568E-01  0.1234E+01
     -2.344  0.2578E-01  0.1236E+01
     -2.284  0.3199E-02  0.1236E+01
     -2.224  0.2858E-01  0.1238E+01
     -2.163  0.8774E-01  0.1243E+01
     -2.103  0.1374E+00  0.1251E+01
     -2.043  0.1174E+00  0.1258E+01
     -1.983  0.6788E-01  0.1263E+01
     -1.922  0.2290E-01  0.1264E+01
     -1.862  0.1106E-02  0.1264E+01
     -1.802  0.6893E-05  0.1264E+01
     -1.741  0.8465E-03  0.1264E+01
     -1.681  0.1900E-01  0.1265E+01
     -1.621  0.3858E-01  0.1268E+01
     -1.560  0.7779E-02  0.1268E+01
     -1.500  0.7430E-03  0.1268E+01
     -1.440  0.1923E-01  0.1269E+01
     -1.380  0.7973E-01  0.1274E+01
     -1.319  0.8039E-01  0.1279E+01
     -1.259  0.2080E-01  0.1280E+01
     -1.199  0.5208E-01  0.1283E+01
     -1.138  0.1161E+00  0.1290E+01
     -1.078  0.3634E-01  0.1292E+01
     -1.018  0.3974E-01  0.1295E+01
     -0.957  0.4026E-01  0.1297E+01
     -0.897  0.9844E-01  0.1303E+01
     -0.837  0.8217E-01  0.1308E+01
     -0.777  0.4983E-01  0.1311E+01
     -0.716  0.2889E-01  0.1313E+01
     -0.656  0.1268E+00  0.1321E+01
     -0.596  0.2119E+00  0.1333E+01
     -0.535  0.1023E+00  0.1339E+01
     -0.475  0.2605E-01  0.1341E+01
     -0.415  0.3945E-01  0.1343E+01
     -0.354  0.9038E-02  0.1344E+01
     -0.294  0.1741E-03  0.1344E+01
     -0.234  0.2291E-06  0.1344E+01
     -0.174  0.1848E-10  0.1344E+01
     -0.113  0.8837E-16  0.1344E+01
     -0.053  0.0000E+00  0.1344E+01
      0.007  0.0000E+00  0.1344E+01
      0.068  0.0000E+00  0.1344E+01
      0.128  0.0000E+00  0.1344E+01
      0.188  0.0000E+00  0.1344E+01
      0.249  0.0000E+00  0.1344E+01
      0.309  0.0000E+00  0.1344E+01
      0.369  0.0000E+00  0.1344E+01
