   56   56  500    1
  0.1428571E+03  0.2000000E-08  0.2000000E-08  0.2000000E-08  0.0000000E+00
  1.000000000000000E-004
  CAR 
 neb_test                                
    556      1    336
 
  0.0000000E+00  0.0000000E+00  0.0000000E+00  0.1000000E+01
    1      -16.898895   1.000000
    2      -12.030322   1.000000
    3      -10.633267   1.000000
    4      -10.614267   1.000000
    5      -10.582368   1.000000
    6       -9.390563   1.000000
    7       -9.328868   1.000000
    8       -9.324690   1.000000
    9       -9.320331   1.000000
   10       -9.315595   1.000000
   11       -9.206138   1.000000
   12       -8.568844   1.000000
   13       -8.513872   1.000000
   14       -8.419271   1.000000
   15       -8.393202   1.000000
   16       -8.252756   1.000000
   17       -8.244129   1.000000
   18       -8.237640   1.000000
   19       -8.232294   1.000000
   20       -8.181960   1.000000
   21       -8.166679   1.000000
   22       -8.091411   1.000000
   23       -8.042387   1.000000
   24       -8.035634   1.000000
   25       -8.028917   1.000000
   26       -7.988470   1.000000
   27       -7.970931   1.000000
   28       -7.862212   1.000000
   29       -7.735977   1.000000
   30       -7.661196   1.000000
   31       -7.580720   1.000000
   32       -7.575435   1.000000
   33       -7.568562   1.000000
   34       -7.563843   1.000000
   35       -7.540971   1.000000
   36       -7.525425   1.000000
   37       -7.506330   1.000000
   38       -7.492198   1.000000
   39       -7.431711   1.000000
   40       -7.419514   1.000000
   41       -7.239454   1.000000
   42       -7.235655   1.000000
   43       -7.225058   1.000000
   44       -7.214298   1.000000
   45       -7.183694   1.000000
   46       -7.164584   1.000000
   47       -7.156106   1.000000
   48       -7.146675   1.000000
   49       -7.132520   1.000000
   50       -7.104603   1.000000
   51       -7.096643   1.000000
   52       -7.049394   1.000000
   53       -7.033873   1.000000
   54       -7.006781   1.000000
   55       -6.997601   1.000000
   56       -6.993347   1.000000
   57       -6.990188   1.000000
   58       -6.982113   1.000000
   59       -6.948890   1.000000
   60       -6.942101   1.000000
   61       -6.925828   1.000000
   62       -6.802137   1.000000
   63       -6.737438   1.000000
   64       -6.729657   1.000000
   65       -6.704564   1.000000
   66       -6.695311   1.000000
   67       -6.678903   1.000000
   68       -6.522600   1.000000
   69       -6.502017   1.000000
   70       -6.483283   1.000000
   71       -6.474072   1.000000
   72       -6.468730   1.000000
   73       -6.458114   1.000000
   74       -6.438411   1.000000
   75       -6.418902   1.000000
   76       -6.345858   1.000000
   77       -6.342835   1.000000
   78       -6.334511   1.000000
   79       -6.296629   1.000000
   80       -6.291863   1.000000
   81       -6.222903   1.000000
   82       -6.195001   1.000000
   83       -6.188477   1.000000
   84       -6.185591   1.000000
   85       -6.173779   1.000000
   86       -6.171648   1.000000
   87       -6.166351   1.000000
   88       -6.155088   1.000000
   89       -6.143877   1.000000
   90       -6.129994   1.000000
   91       -6.112987   1.000000
   92       -6.108708   1.000000
   93       -6.095845   1.000000
   94       -6.093448   1.000000
   95       -6.083376   1.000000
   96       -6.073501   1.000000
   97       -6.039800   1.000000
   98       -6.001964   1.000000
   99       -5.942821   1.000000
  100       -5.928620   1.000000
  101       -5.925510   1.000000
  102       -5.922393   1.000000
  103       -5.895343   1.000000
  104       -5.891353   1.000000
  105       -5.884304   1.000000
  106       -5.871518   1.000000
  107       -5.865494   1.000000
  108       -5.859474   1.000000
  109       -5.846875   1.000000
  110       -5.839048   1.000000
  111       -5.815374   1.000000
  112       -5.788319   1.000000
  113       -5.746986   1.000000
  114       -5.715496   1.000000
  115       -5.711721   1.000000
  116       -5.706570   1.000000
  117       -5.700474   1.000000
  118       -5.696068   1.000000
  119       -5.692860   1.000000
  120       -5.685474   1.000000
  121       -5.679496   1.000000
  122       -5.662175   1.000000
  123       -5.656623   1.000000
  124       -5.651653   1.000000
  125       -5.644769   1.000000
  126       -5.639720   1.000000
  127       -5.628860   1.000000
  128       -5.619797   1.000000
  129       -5.603834   1.000000
  130       -5.561157   1.000000
  131       -5.503357   1.000000
  132       -5.481067   1.000000
  133       -5.474249   1.000000
  134       -5.398631   1.000000
  135       -5.392773   1.000000
  136       -5.369821   1.000000
  137       -5.358684   1.000000
  138       -5.354613   1.000000
  139       -5.344639   1.000000
  140       -5.341081   1.000000
  141       -5.333135   1.000000
  142       -5.325712   1.000000
  143       -5.321745   1.000000
  144       -5.315353   1.000000
  145       -5.303906   1.000000
  146       -5.296704   1.000000
  147       -5.273280   1.000000
  148       -5.252313   1.000000
  149       -5.237656   1.000000
  150       -5.226566   1.000000
  151       -5.209619   1.000000
  152       -5.204021   1.000000
  153       -5.195620   1.000000
  154       -5.184967   1.000000
  155       -5.182283   1.000000
  156       -5.172879   1.000000
  157       -5.170403   1.000000
  158       -5.163631   1.000000
  159       -5.159182   1.000000
  160       -5.153745   1.000000
  161       -5.153079   1.000000
  162       -5.131156   1.000000
  163       -5.125859   1.000000
  164       -5.103414   1.000000
  165       -5.077756   1.000000
  166       -5.073738   1.000000
  167       -5.066445   1.000000
  168       -5.054105   1.000000
  169       -5.051755   1.000000
  170       -5.049019   1.000000
  171       -5.042928   1.000000
  172       -5.007196   1.000000
  173       -4.980896   1.000000
  174       -4.964368   1.000000
  175       -4.962900   1.000000
  176       -4.945432   1.000000
  177       -4.939127   1.000000
  178       -4.924281   1.000000
  179       -4.910730   1.000000
  180       -4.906371   1.000000
  181       -4.869530   1.000000
  182       -4.862475   1.000000
  183       -4.846361   1.000000
  184       -4.828415   1.000000
  185       -4.810336   1.000000
  186       -4.775992   1.000000
  187       -4.758497   1.000000
  188       -4.756611   1.000000
  189       -4.752435   1.000000
  190       -4.747920   1.000000
  191       -4.729952   1.000000
  192       -4.714026   1.000000
  193       -4.683863   1.000000
  194       -4.675384   1.000000
  195       -4.660854   1.000000
  196       -4.650039   1.000000
  197       -4.628793   1.000000
  198       -4.626093   1.000000
  199       -4.605657   1.000000
  200       -4.593037   1.000000
  201       -4.590626   1.000000
  202       -4.579390   1.000000
  203       -4.565700   1.000000
  204       -4.561830   1.000000
  205       -4.558286   1.000000
  206       -4.548902   1.000000
  207       -4.538358   1.000000
  208       -4.533114   1.000000
  209       -4.524671   1.000000
  210       -4.517671   1.000000
  211       -4.498746   1.000000
  212       -4.480138   1.000000
  213       -4.475901   1.000000
  214       -4.469721   1.000000
  215       -4.463562   1.000000
  216       -4.457607   1.000000
  217       -4.445427   1.000000
  218       -4.441701   1.000000
  219       -4.437307   1.000000
  220       -4.434002   1.000000
  221       -4.431701   1.000000
  222       -4.419171   1.000000
  223       -4.378576   1.000000
  224       -4.368264   1.000000
  225       -4.343965   1.000000
  226       -4.331213   1.000000
  227       -4.326328   1.000000
  228       -4.319548   1.000000
  229       -4.314859   1.000000
  230       -4.301908   1.000000
  231       -4.297357   1.000000
  232       -4.265350   1.000000
  233       -4.249662   1.000000
  234       -4.242678   1.000000
  235       -4.237583   1.000000
  236       -4.229036   1.000000
  237       -4.223687   1.000000
  238       -4.221411   1.000000
  239       -4.216073   1.000000
  240       -4.213798   1.000000
  241       -4.209684   1.000000
  242       -4.205812   1.000000
  243       -4.204357   1.000000
  244       -4.200909   1.000000
  245       -4.196641   1.000000
  246       -4.195495   1.000000
  247       -4.187006   1.000000
  248       -4.183693   1.000000
  249       -4.175068   1.000000
  250       -4.168002   1.000000
  251       -4.163033   1.000000
  252       -4.158828   1.000000
  253       -4.148721   1.000000
  254       -4.145946   1.000000
  255       -4.115940   0.999989
  256       -4.102002   0.999940
  257       -4.091762   0.999812
  258       -4.080937   0.999423
  259       -4.078774   0.999286
  260       -4.073679   0.998836
  261       -4.069273   0.998250
  262       -4.054567   0.993863
  263       -4.043363   0.985639
  264       -4.035528   0.975331
  265       -4.014110   0.913062
  266       -4.012736   0.906750
  267       -4.005942   0.870516
  268       -4.003979   0.858435
  269       -3.996752   0.807553
  270       -3.991540   0.764693
  271       -3.987956   0.732407
  272       -3.986423   0.717947
  273       -3.984786   0.702104
  274       -3.984494   0.699233
  275       -3.983222   0.686596
  276       -3.980775   0.661667
  277       -3.977409   0.626200
  278       -3.975781   0.608628
  279       -3.974155   0.590865
  280       -3.973079   0.579003
  281       -3.971376   0.560073
  282       -3.967412   0.515571
  283       -3.949405   0.319087
  284       -3.943668   0.263522
  285       -3.940684   0.236705
  286       -3.937377   0.208832
  287       -3.935398   0.193126
  288       -3.896873   0.025228
  289       -3.857600   0.001081
  290       -3.847386   0.000396
  291       -3.839909   0.000180
  292       -3.837237   0.000135
  293       -3.825135   0.000034
  294       -3.797300   0.000001
  295       -3.744738   0.000000
  296       -3.592523   0.000000
  297       -3.508497   0.000000
  298       -3.506026   0.000000
  299       -3.453149   0.000000
  300       -3.352023   0.000000
  301       -3.344061   0.000000
  302       -3.249234   0.000000
  303       -3.235290   0.000000
  304       -2.919828   0.000000
  305       -2.804435   0.000000
  306       -2.726682   0.000000
  307       -2.668678   0.000000
  308       -2.536482   0.000000
  309       -2.412190   0.000000
  310       -2.211331   0.000000
  311       -2.175627   0.000000
  312       -2.117423   0.000000
  313       -2.115135   0.000000
  314       -2.103567   0.000000
  315       -2.051459   0.000000
  316       -1.997568   0.000000
  317       -1.662458   0.000000
  318       -1.416492   0.000000
  319       -1.378538   0.000000
  320       -1.344537   0.000000
  321       -1.187304   0.000000
  322       -1.174330   0.000000
  323       -1.167895   0.000000
  324       -1.036544   0.000000
  325       -0.926448   0.000000
  326       -0.917201   0.000000
  327       -0.877087   0.000000
  328       -0.805023   0.000000
  329       -0.674054   0.000000
  330       -0.667219   0.000000
  331       -0.644543   0.000000
  332       -0.632992   0.000000
  333       -0.613369   0.000000
  334       -0.597142   0.000000
  335       -0.585416   0.000000
  336       -0.453124   0.000000
