       N       E                     dE             d eps       ncg     rms          rms(c)
DAV:   1     0.285667866012E+04    0.28567E+04   -0.16222E+05   672   0.997E+02
DAV:   2    -0.112078974560E+03   -0.29688E+04   -0.29020E+04   696   0.309E+02
DAV:   3    -0.295117877979E+03   -0.18304E+03   -0.17020E+03   792   0.894E+01
DAV:   4    -0.302862693936E+03   -0.77448E+01   -0.73952E+01   720   0.205E+01
DAV:   5    -0.303107741822E+03   -0.24505E+00   -0.24280E+00   768   0.277E+00    0.537E+01
RMM:   6    -0.457174377680E+03   -0.15407E+03   -0.77629E+02   674   0.801E+01    0.136E+02
RMM:   7    -0.343069295008E+03    0.11411E+03   -0.40045E+02   673   0.575E+01    0.742E+01
RMM:   8    -0.313977446489E+03    0.29092E+02   -0.18928E+02   674   0.399E+01    0.881E+01
RMM:   9    -0.308036539894E+03    0.59409E+01   -0.57110E+01   674   0.211E+01    0.103E+02
RMM:  10    -0.291278646861E+03    0.16758E+02   -0.60283E+01   674   0.208E+01    0.816E+01
RMM:  11    -0.271033781741E+03    0.20245E+02   -0.21873E+01   675   0.125E+01    0.449E+01
RMM:  12    -0.266697749468E+03    0.43360E+01   -0.51105E+00   676   0.600E+00    0.463E+01
RMM:  13    -0.265611567408E+03    0.10862E+01   -0.37904E+00   675   0.514E+00    0.483E+01
RMM:  14    -0.264890589157E+03    0.72098E+00   -0.40809E+00   676   0.531E+00    0.489E+01
RMM:  15    -0.265151104034E+03   -0.26051E+00   -0.47862E+00   675   0.586E+00    0.537E+01
RMM:  16    -0.262838853895E+03    0.23123E+01   -0.31258E+00   675   0.470E+00    0.418E+01
RMM:  17    -0.260421543334E+03    0.24173E+01   -0.23591E+00   675   0.404E+00    0.317E+01
RMM:  18    -0.259820024947E+03    0.60152E+00   -0.20119E+00   676   0.375E+00    0.343E+01
RMM:  19    -0.259111496534E+03    0.70853E+00   -0.11500E+00   677   0.278E+00    0.312E+01
RMM:  20    -0.258358537237E+03    0.75296E+00   -0.14459E+00   675   0.323E+00    0.256E+01
RMM:  21    -0.257622372074E+03    0.73617E+00   -0.63046E-01   675   0.215E+00    0.208E+01
RMM:  22    -0.257103986510E+03    0.51839E+00   -0.31323E-01   676   0.152E+00    0.152E+01
RMM:  23    -0.256773101181E+03    0.33089E+00   -0.23050E-01   675   0.128E+00    0.101E+01
RMM:  24    -0.256611971895E+03    0.16113E+00   -0.17670E-01   674   0.112E+00    0.746E+00
RMM:  25    -0.256769219081E+03   -0.15725E+00   -0.19574E-01   675   0.120E+00    0.122E+01
RMM:  26    -0.257014317402E+03   -0.24510E+00   -0.30099E-01   675   0.155E+00    0.164E+01
RMM:  27    -0.256776354194E+03    0.23796E+00   -0.25579E-01   675   0.144E+00    0.122E+01
RMM:  28    -0.256901615753E+03   -0.12526E+00   -0.24818E-01   676   0.134E+00    0.149E+01
RMM:  29    -0.256875429942E+03    0.26186E-01   -0.26089E-01   675   0.142E+00    0.146E+01
RMM:  30    -0.256684649639E+03    0.19078E+00   -0.21681E-01   675   0.130E+00    0.114E+01
RMM:  31    -0.256606797664E+03    0.77852E-01   -0.16303E-01   675   0.113E+00    0.940E+00
RMM:  32    -0.256521214889E+03    0.85583E-01   -0.10695E-01   675   0.920E-01    0.667E+00
RMM:  33    -0.256465311411E+03    0.55903E-01   -0.70444E-02   675   0.759E-01    0.503E+00
RMM:  34    -0.256439840292E+03    0.25471E-01   -0.49876E-02   675   0.646E-01    0.389E+00
RMM:  35    -0.256447390415E+03   -0.75501E-02   -0.41942E-02   674   0.569E-01    0.397E+00
RMM:  36    -0.256448445841E+03   -0.10554E-02   -0.43578E-02   675   0.583E-01    0.375E+00
RMM:  37    -0.256429859318E+03    0.18587E-01   -0.37663E-02   674   0.569E-01    0.314E+00
RMM:  38    -0.256416872208E+03    0.12987E-01   -0.21194E-02   676   0.416E-01    0.225E+00
RMM:  39    -0.256423924780E+03   -0.70526E-02   -0.18054E-02   674   0.370E-01    0.263E+00
RMM:  40    -0.256415969057E+03    0.79557E-02   -0.15012E-02   675   0.348E-01    0.194E+00
RMM:  41    -0.256410611626E+03    0.53574E-02   -0.93931E-03   675   0.284E-01    0.127E+00
RMM:  42    -0.256409683555E+03    0.92807E-03   -0.55218E-03   674   0.208E-01    0.111E+00
RMM:  43    -0.256413357563E+03   -0.36740E-02   -0.58802E-03   676   0.207E-01    0.150E+00
RMM:  44    -0.256412215748E+03    0.11418E-02   -0.49261E-03   675   0.201E-01    0.126E+00
RMM:  45    -0.256410104916E+03    0.21108E-02   -0.29723E-03   676   0.161E-01    0.716E-01
RMM:  46    -0.256411436703E+03   -0.13318E-02   -0.18637E-03   675   0.120E-01    0.743E-01
RMM:  47    -0.256413156906E+03   -0.17202E-02   -0.18574E-03   675   0.122E-01    0.638E-01
RMM:  48    -0.256414682606E+03   -0.15257E-02   -0.14945E-03   675   0.109E-01    0.768E-01
RMM:  49    -0.256417673888E+03   -0.29913E-02   -0.16294E-03   674   0.106E-01    0.752E-01
RMM:  50    -0.256417817133E+03   -0.14325E-03   -0.11479E-03   673   0.954E-02    0.295E-01
RMM:  51    -0.256420096852E+03   -0.22797E-02   -0.79270E-04   675   0.727E-02    0.511E-01
RMM:  52    -0.256421271728E+03   -0.11749E-02   -0.62187E-04   674   0.684E-02    0.239E-01
RMM:  53    -0.256422440277E+03   -0.11685E-02   -0.39466E-04   675   0.528E-02    0.341E-01
RMM:  54    -0.256424411044E+03   -0.19708E-02   -0.36873E-04   673   0.472E-02    0.191E-01
RMM:  55    -0.256424837078E+03   -0.42603E-03   -0.14978E-04   674   0.339E-02    0.142E-01
RMM:  56    -0.256426445181E+03   -0.16081E-02   -0.19058E-04   674   0.339E-02    0.237E-01
RMM:  57    -0.256427144728E+03   -0.69955E-03   -0.14579E-04   674   0.321E-02    0.985E-02
RMM:  58    -0.256427641824E+03   -0.49710E-03   -0.66657E-05   672   0.213E-02    0.127E-01
RMM:  59    -0.256428839684E+03   -0.11979E-02   -0.95575E-05   671   0.200E-02    0.100E-01
RMM:  60    -0.256429108031E+03   -0.26835E-03   -0.31026E-05   670   0.144E-02    0.568E-02
RMM:  61    -0.256429752838E+03   -0.64481E-03   -0.50659E-05   671   0.179E-02    0.159E-01
RMM:  62    -0.256430084376E+03   -0.33154E-03   -0.38482E-05   670   0.160E-02    0.911E-02
RMM:  63    -0.256430289859E+03   -0.20548E-03   -0.14159E-05   662   0.102E-02    0.513E-02
RMM:  64    -0.256430611695E+03   -0.32184E-03   -0.11720E-05   650   0.854E-03    0.736E-02
RMM:  65    -0.256431013664E+03   -0.40197E-03   -0.14264E-05   650   0.826E-03    0.641E-02
RMM:  66    -0.256431180582E+03   -0.16692E-03   -0.91928E-06   634   0.773E-03    0.498E-02
RMM:  67    -0.256431298536E+03   -0.11795E-03   -0.64060E-06   581   0.677E-03    0.395E-02
RMM:  68    -0.256431529806E+03   -0.23127E-03   -0.79255E-06   561   0.575E-03    0.307E-02
RMM:  69    -0.256431625707E+03   -0.95901E-04   -0.35110E-06   460   0.456E-03    0.213E-02
RMM:  70    -0.256431856208E+03   -0.23050E-03   -0.92936E-06   556   0.512E-03    0.355E-02
RMM:  71    -0.256431945064E+03   -0.88856E-04   -0.48772E-06   494   0.476E-03    0.288E-02
RMM:  72    -0.256431961501E+03   -0.16438E-04   -0.15485E-06   378   0.361E-03    0.123E-02
RMM:  73    -0.256432013928E+03   -0.52427E-04   -0.15502E-06   393   0.272E-03    0.143E-02
RMM:  74    -0.256432100465E+03   -0.86536E-04   -0.38269E-06   466   0.325E-03    0.141E-02
RMM:  75    -0.256432138366E+03   -0.37901E-04   -0.14749E-06   393   0.239E-03    0.796E-03
RMM:  76    -0.256432147822E+03   -0.94559E-05   -0.70813E-07   374   0.217E-03    0.128E-02
RMM:  77    -0.256432170010E+03   -0.22188E-04   -0.77537E-07   376   0.205E-03    0.706E-03
RMM:  78    -0.256432184537E+03   -0.14527E-04   -0.46991E-07   372   0.148E-03    0.800E-03
RMM:  79    -0.256432210448E+03   -0.25911E-04   -0.96970E-07   383   0.154E-03    0.665E-03
RMM:  80    -0.256432217354E+03   -0.69056E-05   -0.32323E-07   364   0.136E-03    0.453E-03
RMM:  81    -0.256432223347E+03   -0.59932E-05   -0.21845E-07   360   0.114E-03    0.866E-03
RMM:  82    -0.256432233975E+03   -0.10628E-04   -0.39550E-07   370   0.128E-03    0.531E-03
RMM:  83    -0.256432247743E+03   -0.13768E-04   -0.50948E-07   371   0.111E-03    0.358E-03
RMM:  84    -0.256432254437E+03   -0.66945E-05   -0.20961E-07   356   0.978E-04    0.352E-03
RMM:  85    -0.256432262209E+03   -0.77716E-05   -0.24690E-07   351   0.817E-04    0.312E-03
RMM:  86    -0.256432261157E+03    0.10516E-05   -0.15772E-07   358   0.924E-04    0.458E-03
RMM:  87    -0.256432268994E+03   -0.78367E-05   -0.24682E-07   361   0.835E-04    0.273E-03
RMM:  88    -0.256432271822E+03   -0.28287E-05   -0.10327E-07   294   0.591E-04    0.205E-03
RMM:  89    -0.256432274150E+03   -0.23276E-05   -0.46111E-08   246   0.525E-04    0.226E-03
RMM:  90    -0.256432278478E+03   -0.43276E-05   -0.68656E-08   236   0.491E-04    0.167E-03
RMM:  91    -0.256432280481E+03   -0.20032E-05   -0.62514E-08   301   0.546E-04    0.322E-03
RMM:  92    -0.256432281690E+03   -0.12091E-05   -0.45684E-08   288   0.574E-04    0.131E-03
RMM:  93    -0.256432283054E+03   -0.13637E-05   -0.15249E-08   113   0.372E-04    0.119E-03
RMM:  94    -0.256432284705E+03   -0.16515E-05   -0.17641E-08   124   0.374E-04    0.117E-03
RMM:  95    -0.256432285948E+03   -0.12431E-05   -0.98984E-09   106   0.360E-04    0.674E-04
RMM:  96    -0.256432286954E+03   -0.10055E-05   -0.14546E-08    97   0.364E-04    0.741E-04
RMM:  97    -0.256432287666E+03   -0.71183E-06   -0.11701E-08    76   0.362E-04
   1 F= -.25643229E+03 E0= -.25616469E+03  d E =-.256432E+03
       N       E                     dE             d eps       ncg     rms          rms(c)
DAV:   1    -0.257211070554E+03   -0.77878E+00   -0.42300E+01   672   0.102E+01    0.186E+00
RMM:   2    -0.258720918117E+03   -0.15098E+01   -0.23139E+00   673   0.405E+00    0.218E+01
RMM:   3    -0.258143350522E+03    0.57757E+00   -0.46230E-01   681   0.189E+00    0.206E+01
RMM:   4    -0.257548588161E+03    0.59476E+00   -0.26528E-01   676   0.144E+00    0.105E+01
RMM:   5    -0.257359993722E+03    0.18859E+00   -0.15970E-01   676   0.111E+00    0.579E+00
RMM:   6    -0.257386983861E+03   -0.26990E-01   -0.61020E-02   676   0.677E-01    0.784E+00
RMM:   7    -0.257364259763E+03    0.22724E-01   -0.56622E-02   676   0.644E-01    0.621E+00
RMM:   8    -0.257397437690E+03   -0.33178E-01   -0.66217E-02   676   0.720E-01    0.743E+00
RMM:   9    -0.257400585668E+03   -0.31480E-02   -0.40582E-02   676   0.583E-01    0.899E+00
RMM:  10    -0.257304176565E+03    0.96409E-01   -0.35792E-02   676   0.545E-01    0.322E+00
RMM:  11    -0.257304436266E+03   -0.25970E-03   -0.24391E-02   676   0.440E-01    0.264E+00
RMM:  12    -0.257315001677E+03   -0.10565E-01   -0.26089E-02   675   0.448E-01    0.342E+00
RMM:  13    -0.257308730066E+03    0.62716E-02   -0.20370E-02   676   0.412E-01    0.321E+00
RMM:  14    -0.257294172836E+03    0.14557E-01   -0.15963E-02   675   0.368E-01    0.189E+00
RMM:  15    -0.257290923957E+03    0.32489E-02   -0.10712E-02   676   0.292E-01    0.123E+00
RMM:  16    -0.257297733915E+03   -0.68100E-02   -0.75508E-03   676   0.248E-01    0.221E+00
RMM:  17    -0.257288438911E+03    0.92950E-02   -0.49222E-03   676   0.213E-01    0.111E+00
RMM:  18    -0.257287744309E+03    0.69460E-03   -0.24514E-03   676   0.147E-01    0.639E-01
RMM:  19    -0.257287947026E+03   -0.20272E-03   -0.13196E-03   676   0.104E-01    0.675E-01
RMM:  20    -0.257288037140E+03   -0.90114E-04   -0.12960E-03   676   0.103E-01    0.608E-01
RMM:  21    -0.257287535331E+03    0.50181E-03   -0.74841E-04   676   0.837E-02    0.551E-01
RMM:  22    -0.257287216980E+03    0.31835E-03   -0.40489E-04   676   0.600E-02    0.286E-01
RMM:  23    -0.257287212896E+03    0.40842E-05   -0.19764E-04   676   0.408E-02    0.185E-01
RMM:  24    -0.257287525971E+03   -0.31307E-03   -0.21274E-04   676   0.409E-02    0.317E-01
RMM:  25    -0.257287262591E+03    0.26338E-03   -0.14921E-04   676   0.369E-02    0.207E-01
RMM:  26    -0.257287315105E+03   -0.52514E-04   -0.70782E-05   676   0.253E-02    0.106E-01
RMM:  27    -0.257287338433E+03   -0.23328E-04   -0.27857E-05   672   0.152E-02    0.987E-02
RMM:  28    -0.257287407307E+03   -0.68874E-04   -0.33419E-05   672   0.162E-02    0.109E-01
RMM:  29    -0.257287377967E+03    0.29340E-04   -0.20332E-05   669   0.137E-02    0.326E-02
RMM:  30    -0.257287413401E+03   -0.35434E-04   -0.66131E-06   611   0.738E-03    0.403E-02
RMM:  31    -0.257287426371E+03   -0.12970E-04   -0.48983E-06   550   0.636E-03    0.379E-02
RMM:  32    -0.257287435865E+03   -0.94939E-05   -0.28587E-06   408   0.547E-03    0.206E-02
RMM:  33    -0.257287445531E+03   -0.96661E-05   -0.15592E-06   376   0.368E-03    0.235E-02
RMM:  34    -0.257287459737E+03   -0.14207E-04   -0.14993E-06   377   0.379E-03    0.181E-02
RMM:  35    -0.257287463476E+03   -0.37390E-05   -0.80425E-07   367   0.266E-03    0.154E-02
RMM:  36    -0.257287484239E+03   -0.20762E-04   -0.17342E-06   395   0.291E-03    0.187E-02
RMM:  37    -0.257287490662E+03   -0.64237E-05   -0.10712E-06   374   0.303E-03    0.801E-03
RMM:  38    -0.257287499565E+03   -0.89029E-05   -0.66782E-07   368   0.188E-03    0.125E-02
RMM:  39    -0.257287512601E+03   -0.13036E-04   -0.10790E-06   383   0.217E-03    0.807E-03
RMM:  40    -0.257287515434E+03   -0.28335E-05   -0.34086E-07   365   0.150E-03    0.582E-03
RMM:  41    -0.257229993713E+03    0.57522E-01    0.17897E+01   567   0.240E+00    0.329E-01
RMM:  42    -0.257283627126E+03   -0.53633E-01   -0.45888E-01   672   0.997E-01    0.950E-02
RMM:  43    -0.257287263829E+03   -0.36367E-02   -0.14354E-02   672   0.142E-01    0.481E-02
RMM:  44    -0.257287461448E+03   -0.19762E-03   -0.12627E-03   674   0.383E-02    0.370E-02
RMM:  45    -0.257287512068E+03   -0.50620E-04   -0.15539E-04   647   0.150E-02    0.298E-02
RMM:  46    -0.257287521048E+03   -0.89805E-05   -0.19940E-05   440   0.753E-03    0.128E-02
RMM:  47    -0.257287526878E+03   -0.58303E-05   -0.31289E-06   379   0.432E-03    0.150E-02
RMM:  48    -0.257287532202E+03   -0.53239E-05   -0.10587E-06   373   0.303E-03    0.783E-03
RMM:  49    -0.257287534578E+03   -0.23758E-05   -0.28380E-07   362   0.165E-03    0.604E-03
RMM:  50    -0.257287537497E+03   -0.29191E-05   -0.22942E-07   367   0.128E-03    0.620E-03
RMM:  51    -0.257287538316E+03   -0.81866E-06   -0.12179E-07   350   0.109E-03
   2 F= -.25728754E+03 E0= -.25701929E+03  d E =-.855251E+00
       N       E                     dE             d eps       ncg     rms          rms(c)
DAV:   1    -0.257375059276E+03   -0.87522E-01   -0.81059E+01   672   0.144E+01    0.245E+00
RMM:   2    -0.260564050957E+03   -0.31890E+01   -0.44347E+00   676   0.558E+00    0.308E+01
RMM:   3    -0.258802411284E+03    0.17616E+01   -0.99419E-01   683   0.280E+00    0.237E+01
RMM:   4    -0.257936855240E+03    0.86556E+00   -0.39237E-01   677   0.172E+00    0.126E+01
RMM:   5    -0.257652242620E+03    0.28461E+00   -0.23992E-01   676   0.135E+00    0.633E+00
RMM:   6    -0.257712002063E+03   -0.59759E-01   -0.12633E-01   676   0.958E-01    0.104E+01
RMM:   7    -0.257709507613E+03    0.24945E-02   -0.70179E-02   676   0.724E-01    0.102E+01
RMM:   8    -0.257729228456E+03   -0.19721E-01   -0.10521E-01   676   0.907E-01    0.991E+00
RMM:   9    -0.257673320209E+03    0.55908E-01   -0.69527E-02   676   0.765E-01    0.946E+00
RMM:  10    -0.257578307004E+03    0.95013E-01   -0.42322E-02   676   0.583E-01    0.447E+00
RMM:  11    -0.257570366019E+03    0.79410E-02   -0.32415E-02   676   0.501E-01    0.350E+00
RMM:  12    -0.257583020943E+03   -0.12655E-01   -0.39592E-02   676   0.550E-01    0.387E+00
RMM:  13    -0.257567232582E+03    0.15788E-01   -0.33884E-02   676   0.535E-01    0.347E+00
RMM:  14    -0.257551231664E+03    0.16001E-01   -0.20587E-02   676   0.414E-01    0.221E+00
RMM:  15    -0.257554185089E+03   -0.29534E-02   -0.17343E-02   676   0.365E-01    0.232E+00
RMM:  16    -0.257559161266E+03   -0.49762E-02   -0.12138E-02   676   0.311E-01    0.291E+00
RMM:  17    -0.257543376423E+03    0.15785E-01   -0.10086E-02   676   0.303E-01    0.115E+00
RMM:  18    -0.257542719289E+03    0.65713E-03   -0.37708E-03   676   0.178E-01    0.786E-01
RMM:  19    -0.257545292097E+03   -0.25728E-02   -0.34010E-03   676   0.163E-01    0.126E+00
RMM:  20    -0.257542563365E+03    0.27287E-02   -0.22116E-03   676   0.144E-01    0.880E-01
RMM:  21    -0.257541647515E+03    0.91585E-03   -0.97067E-04   676   0.939E-02    0.394E-01
RMM:  22    -0.257541836654E+03   -0.18914E-03   -0.43336E-04   676   0.597E-02    0.351E-01
RMM:  23    -0.257542131010E+03   -0.29436E-03   -0.44307E-04   676   0.596E-02    0.461E-01
RMM:  24    -0.257541766926E+03    0.36408E-03   -0.25045E-04   676   0.484E-02    0.276E-01
RMM:  25    -0.257541795152E+03   -0.28226E-04   -0.13051E-04   676   0.330E-02    0.121E-01
RMM:  26    -0.257541952397E+03   -0.15725E-03   -0.11132E-04   676   0.292E-02    0.199E-01
RMM:  27    -0.257541948651E+03    0.37461E-05   -0.96978E-05   676   0.279E-02    0.188E-01
RMM:  28    -0.257541912254E+03    0.36398E-04   -0.57527E-05   675   0.223E-02    0.779E-02
RMM:  29    -0.257541958622E+03   -0.46368E-04   -0.27288E-05   672   0.148E-02    0.495E-02
RMM:  30    -0.257542005028E+03   -0.46406E-04   -0.19240E-05   672   0.120E-02    0.745E-02
RMM:  31    -0.257542016300E+03   -0.11272E-04   -0.12968E-05   668   0.107E-02    0.299E-02
RMM:  32    -0.257542037430E+03   -0.21130E-04   -0.40521E-06   502   0.601E-03    0.240E-02
RMM:  33    -0.257542069916E+03   -0.32485E-04   -0.50892E-06   564   0.609E-03    0.376E-02
RMM:  34    -0.257542095569E+03   -0.25653E-04   -0.39346E-06   471   0.563E-03    0.153E-02
RMM:  35    -0.257542107802E+03   -0.12233E-04   -0.15342E-06   377   0.364E-03    0.152E-02
RMM:  36    -0.257542163169E+03   -0.55367E-04   -0.58788E-06   511   0.432E-03    0.213E-02
RMM:  37    -0.257542176993E+03   -0.13825E-04   -0.18774E-06   387   0.355E-03    0.864E-03
RMM:  38    -0.257542199998E+03   -0.23004E-04   -0.19818E-06   402   0.298E-03    0.161E-02
RMM:  39    -0.257542217909E+03   -0.17911E-04   -0.18975E-06   396   0.325E-03    0.751E-03
RMM:  40    -0.257542226821E+03   -0.89128E-05   -0.83070E-07   372   0.213E-03    0.104E-02
RMM:  41    -0.257542251150E+03   -0.24329E-04   -0.23932E-06   426   0.240E-03    0.805E-03
RMM:  42    -0.257542255930E+03   -0.47801E-05   -0.55765E-07   368   0.185E-03    0.459E-03
RMM:  43    -0.257542264802E+03   -0.88721E-05   -0.63572E-07   377   0.155E-03    0.926E-03
RMM:  44    -0.257542275152E+03   -0.10350E-04   -0.89940E-07   376   0.187E-03    0.365E-03
RMM:  45    -0.257542277464E+03   -0.23118E-05   -0.26509E-07   358   0.121E-03    0.419E-03
RMM:  46    -0.257542284790E+03   -0.73253E-05   -0.53667E-07   374   0.112E-03    0.445E-03
RMM:  47    -0.257542285562E+03   -0.77200E-06   -0.14878E-07   344   0.103E-03
   3 F= -.25754229E+03 E0= -.25727267E+03  d E =-.254747E+00
       N       E                     dE             d eps       ncg     rms          rms(c)
DAV:   1    -0.257560647047E+03   -0.18362E-01   -0.91715E-01   720   0.171E+00    0.262E-01
RMM:   2    -0.257630732281E+03   -0.70085E-01   -0.37334E-02   676   0.549E-01    0.593E+00
RMM:   3    -0.257576064179E+03    0.54668E-01   -0.13724E-02   677   0.357E-01    0.365E+00
RMM:   4    -0.257561727695E+03    0.14336E-01   -0.66329E-03   677   0.235E-01    0.105E+00
RMM:   5    -0.257564064307E+03   -0.23366E-02   -0.26116E-03   676   0.144E-01    0.147E+00
RMM:   6    -0.257563055901E+03    0.10084E-02   -0.13749E-03   676   0.102E-01    0.123E+00
RMM:   7    -0.257564352766E+03   -0.12969E-02   -0.18252E-03   676   0.120E-01    0.128E+00
RMM:   8    -0.257561475029E+03    0.28777E-02   -0.15224E-03   676   0.115E-01    0.543E-01
RMM:   9    -0.257561641898E+03   -0.16687E-03   -0.67197E-04   676   0.760E-02    0.549E-01
RMM:  10    -0.257561507754E+03    0.13414E-03   -0.22475E-04   676   0.426E-02    0.500E-01
RMM:  11    -0.257561870402E+03   -0.36265E-03   -0.35605E-04   676   0.522E-02    0.536E-01
RMM:  12    -0.257561609682E+03    0.26072E-03   -0.32292E-04   676   0.521E-02    0.414E-01
RMM:  13    -0.257561355518E+03    0.25416E-03   -0.22253E-04   676   0.445E-02    0.173E-01
RMM:  14    -0.257561479761E+03   -0.12424E-03   -0.10894E-04   676   0.298E-02    0.175E-01
RMM:  15    -0.257561571824E+03   -0.92063E-04   -0.11761E-04   676   0.305E-02    0.256E-01
RMM:  16    -0.257561442883E+03    0.12894E-03   -0.82613E-05   676   0.276E-02    0.158E-01
RMM:  17    -0.257561460097E+03   -0.17215E-04   -0.34212E-05   672   0.174E-02    0.763E-02
RMM:  18    -0.257561505551E+03   -0.45453E-04   -0.22744E-05   671   0.137E-02    0.890E-02
RMM:  19    -0.257561495545E+03    0.10005E-04   -0.17097E-05   667   0.124E-02    0.881E-02
RMM:  20    -0.257561492550E+03    0.29955E-05   -0.91256E-06   653   0.925E-03    0.422E-02
RMM:  21    -0.257561506179E+03   -0.13629E-04   -0.41918E-06   503   0.616E-03    0.436E-02
RMM:  22    -0.257561508379E+03   -0.21995E-05   -0.46190E-06   540   0.646E-03    0.441E-02
RMM:  23    -0.257561507246E+03    0.11327E-05   -0.29942E-06   409   0.579E-03    0.181E-02
RMM:  24    -0.257561511581E+03   -0.43353E-05   -0.11529E-06   364   0.345E-03    0.172E-02
RMM:  25    -0.257561513980E+03   -0.23987E-05   -0.10177E-06   360   0.313E-03    0.243E-02
RMM:  26    -0.257561513423E+03    0.55737E-06   -0.73698E-07   360   0.285E-03
   4 F= -.25756151E+03 E0= -.25729190E+03  d E =-.192279E-01
       N       E                     dE             d eps       ncg     rms          rms(c)
DAV:   1    -0.257584014280E+03   -0.22500E-01   -0.30318E+00   672   0.313E+00    0.509E-01
RMM:   2    -0.257852807840E+03   -0.26879E+00   -0.13394E-01   676   0.105E+00    0.111E+01
RMM:   3    -0.257645013325E+03    0.20779E+00   -0.52938E-02   676   0.708E-01    0.672E+00
RMM:   4    -0.257590956706E+03    0.54057E-01   -0.23081E-02   677   0.435E-01    0.203E+00
RMM:   5    -0.257595387258E+03   -0.44306E-02   -0.87769E-03   676   0.263E-01    0.269E+00
RMM:   6    -0.257591247311E+03    0.41399E-02   -0.44439E-03   676   0.182E-01    0.200E+00
RMM:   7    -0.257597036150E+03   -0.57888E-02   -0.62015E-03   676   0.221E-01    0.237E+00
RMM:   8    -0.257588346984E+03    0.86892E-02   -0.48535E-03   676   0.205E-01    0.133E+00
RMM:   9    -0.257588698060E+03   -0.35108E-03   -0.19184E-03   676   0.130E-01    0.161E+00
RMM:  10    -0.257585831718E+03    0.28663E-02   -0.12775E-03   676   0.102E-01    0.596E-01
RMM:  11    -0.257587551753E+03   -0.17200E-02   -0.11858E-03   676   0.950E-02    0.853E-01
RMM:  12    -0.257586795322E+03    0.75643E-03   -0.10333E-03   676   0.929E-02    0.685E-01
RMM:  13    -0.257586074883E+03    0.72044E-03   -0.66040E-04   676   0.775E-02    0.390E-01
RMM:  14    -0.257586108149E+03   -0.33266E-04   -0.30903E-04   676   0.506E-02    0.273E-01
RMM:  15    -0.257586412773E+03   -0.30462E-03   -0.36013E-04   676   0.530E-02    0.372E-01
RMM:  16    -0.257586178326E+03    0.23445E-03   -0.24108E-04   676   0.470E-02    0.304E-01
RMM:  17    -0.257586107448E+03    0.70878E-04   -0.10836E-04   676   0.312E-02    0.134E-01
RMM:  18    -0.257586176503E+03   -0.69055E-04   -0.64717E-05   673   0.230E-02    0.113E-01
RMM:  19    -0.257586206470E+03   -0.29967E-04   -0.48791E-05   675   0.199E-02    0.142E-01
RMM:  20    -0.257586187138E+03    0.19333E-04   -0.36490E-05   672   0.181E-02    0.117E-01
RMM:  21    -0.257586179032E+03    0.81060E-05   -0.19795E-05   670   0.133E-02    0.658E-02
RMM:  22    -0.257586200307E+03   -0.21275E-04   -0.10410E-05   665   0.926E-03    0.624E-02
RMM:  23    -0.257586209547E+03   -0.92408E-05   -0.96841E-06   656   0.899E-03    0.667E-02
RMM:  24    -0.257586203623E+03    0.59248E-05   -0.62913E-06   628   0.774E-03    0.448E-02
RMM:  25    -0.257586208923E+03   -0.53002E-05   -0.22212E-06   385   0.463E-03    0.320E-02
RMM:  26    -0.257586215694E+03   -0.67710E-05   -0.29120E-06   407   0.519E-03    0.394E-02
RMM:  27    -0.257586217082E+03   -0.13886E-05   -0.22531E-06   377   0.518E-03    0.265E-02
RMM:  28    -0.257586218437E+03   -0.13551E-05   -0.80949E-07   361   0.300E-03    0.164E-02
RMM:  29    -0.257586220681E+03   -0.22431E-05   -0.53660E-07   353   0.226E-03    0.162E-02
RMM:  30    -0.257586222979E+03   -0.22983E-05   -0.50120E-07   356   0.230E-03    0.128E-02
RMM:  31    -0.257586224114E+03   -0.11353E-05   -0.27756E-07   349   0.180E-03    0.927E-03
RMM:  32    -0.257586225058E+03   -0.94436E-06   -0.17022E-07   349   0.128E-03
   5 F= -.25758623E+03 E0= -.25731678E+03  d E =-.247116E-01
       N       E                     dE             d eps       ncg     rms          rms(c)
DAV:   1    -0.257605502664E+03   -0.19279E-01   -0.46822E+00   672   0.393E+00    0.723E-01
RMM:   2    -0.258138246806E+03   -0.53274E+00   -0.24699E-01   676   0.143E+00    0.149E+01
RMM:   3    -0.257722564659E+03    0.41568E+00   -0.11224E-01   676   0.104E+00    0.895E+00
RMM:   4    -0.257619984574E+03    0.10258E+00   -0.41304E-02   676   0.578E-01    0.294E+00
RMM:   5    -0.257618643509E+03    0.13411E-02   -0.16090E-02   676   0.353E-01    0.305E+00
RMM:   6    -0.257614841855E+03    0.38017E-02   -0.62891E-03   676   0.215E-01    0.257E+00
RMM:   7    -0.257623339090E+03   -0.84972E-02   -0.10418E-02   675   0.283E-01    0.290E+00
RMM:   8    -0.257614133983E+03    0.92051E-02   -0.77930E-03   676   0.259E-01    0.218E+00
RMM:   9    -0.257612092930E+03    0.20411E-02   -0.37020E-03   676   0.182E-01    0.230E+00
RMM:  10    -0.257606149605E+03    0.59433E-02   -0.24274E-03   676   0.142E-01    0.753E-01
RMM:  11    -0.257607380882E+03   -0.12313E-02   -0.14745E-03   676   0.108E-01    0.724E-01
RMM:  12    -0.257608213458E+03   -0.83258E-03   -0.15548E-03   676   0.110E-01    0.911E-01
RMM:  13    -0.257606657944E+03    0.15555E-02   -0.10963E-03   675   0.101E-01    0.580E-01
RMM:  14    -0.257606365627E+03    0.29232E-03   -0.44423E-04   676   0.623E-02    0.284E-01
RMM:  15    -0.257606584417E+03   -0.21879E-03   -0.33046E-04   676   0.509E-02    0.292E-01
RMM:  16    -0.257606732343E+03   -0.14793E-03   -0.29823E-04   676   0.490E-02    0.398E-01
RMM:  17    -0.257606450917E+03    0.28143E-03   -0.19978E-04   676   0.428E-02    0.242E-01
RMM:  18    -0.257606466703E+03   -0.15786E-04   -0.10847E-04   676   0.307E-02    0.136E-01
RMM:  19    -0.257606501156E+03   -0.34453E-04   -0.51324E-05   673   0.203E-02    0.118E-01
RMM:  20    -0.257606559929E+03   -0.58773E-04   -0.54854E-05   674   0.208E-02    0.154E-01
RMM:  21    -0.257606515527E+03    0.44403E-04   -0.35284E-05   672   0.181E-02    0.117E-01
RMM:  22    -0.257606516120E+03   -0.59346E-06   -0.15636E-05   668   0.118E-02    0.475E-02
RMM:  23    -0.257606538603E+03   -0.22483E-04   -0.81919E-06   649   0.829E-03    0.554E-02
RMM:  24    -0.257606545230E+03   -0.66264E-05   -0.68037E-06   631   0.776E-03    0.688E-02
RMM:  25    -0.257606535750E+03    0.94792E-05   -0.37728E-06   455   0.616E-03    0.325E-02
RMM:  26    -0.257606546631E+03   -0.10880E-04   -0.25340E-06   387   0.503E-03    0.304E-02
RMM:  27    -0.257606549854E+03   -0.32230E-05   -0.22387E-06   373   0.480E-03    0.339E-02
RMM:  28    -0.257606550170E+03   -0.31610E-06   -0.15220E-06   366   0.430E-03
   6 F= -.25760655E+03 E0= -.25733771E+03  d E =-.203251E-01
       N       E                     dE             d eps       ncg     rms          rms(c)
DAV:   1    -0.257622893901E+03   -0.16344E-01   -0.50056E+00   672   0.404E+00    0.765E-01
RMM:   2    -0.258191828328E+03   -0.56893E+00   -0.27252E-01   676   0.148E+00    0.151E+01
RMM:   3    -0.257757979508E+03    0.43385E+00   -0.12489E-01   676   0.110E+00    0.947E+00
RMM:   4    -0.257640159619E+03    0.11782E+00   -0.46372E-02   676   0.613E-01    0.320E+00
RMM:   5    -0.257634781487E+03    0.53781E-02   -0.18241E-02   676   0.376E-01    0.289E+00
RMM:   6    -0.257633889176E+03    0.89231E-03   -0.64926E-03   676   0.219E-01    0.286E+00
RMM:   7    -0.257640886995E+03   -0.69978E-02   -0.11023E-02   675   0.289E-01    0.295E+00
RMM:   8    -0.257633051021E+03    0.78360E-02   -0.80668E-03   676   0.264E-01    0.248E+00
RMM:   9    -0.257629414869E+03    0.36362E-02   -0.38952E-03   676   0.187E-01    0.233E+00
RMM:  10    -0.257623201405E+03    0.62135E-02   -0.28112E-03   676   0.153E-01    0.767E-01
RMM:  11    -0.257624221692E+03   -0.10203E-02   -0.15573E-03   676   0.111E-01    0.708E-01
RMM:  12    -0.257625125129E+03   -0.90344E-03   -0.16632E-03   676   0.113E-01    0.896E-01
RMM:  13    -0.257623722857E+03    0.14023E-02   -0.11810E-03   675   0.104E-01    0.617E-01
RMM:  14    -0.257623297412E+03    0.42545E-03   -0.49490E-04   676   0.657E-02    0.294E-01
RMM:  15    -0.257623579195E+03   -0.28178E-03   -0.38489E-04   676   0.551E-02    0.331E-01
RMM:  16    -0.257623594521E+03   -0.15326E-04   -0.30102E-04   676   0.501E-02    0.382E-01
RMM:  17    -0.257623375487E+03    0.21903E-03   -0.20288E-04   676   0.430E-02    0.225E-01
RMM:  18    -0.257623414891E+03   -0.39404E-04   -0.11922E-04   676   0.316E-02    0.158E-01
RMM:  19    -0.257623469910E+03   -0.55019E-04   -0.83023E-05   675   0.255E-02    0.172E-01
RMM:  20    -0.257623465509E+03    0.44014E-05   -0.68566E-05   675   0.243E-02    0.161E-01
RMM:  21    -0.257623435421E+03    0.30088E-04   -0.35811E-05   672   0.182E-02    0.100E-01
RMM:  22    -0.257623443653E+03   -0.82327E-05   -0.16164E-05   668   0.117E-02    0.526E-02
RMM:  23    -0.257623481332E+03   -0.37679E-04   -0.14868E-05   670   0.109E-02    0.915E-02
RMM:  24    -0.257623462549E+03    0.18783E-04   -0.98405E-06   657   0.957E-03    0.765E-02
RMM:  25    -0.257623465904E+03   -0.33546E-05   -0.56444E-06   604   0.728E-03    0.303E-02
RMM:  26    -0.257623473028E+03   -0.71239E-05   -0.24922E-06   389   0.495E-03    0.319E-02
RMM:  27    -0.257623478316E+03   -0.52882E-05   -0.25705E-06   393   0.516E-03    0.345E-02
RMM:  28    -0.257623476672E+03    0.16438E-05   -0.17117E-06   369   0.453E-03    0.190E-02
RMM:  29    -0.257623480212E+03   -0.35404E-05   -0.83068E-07   364   0.301E-03    0.163E-02
RMM:  30    -0.257623482048E+03   -0.18356E-05   -0.61540E-07   354   0.245E-03    0.166E-02
RMM:  31    -0.257623482824E+03   -0.77617E-06   -0.44541E-07   356   0.233E-03
   7 F= -.25762348E+03 E0= -.25735564E+03  d E =-.169327E-01
       N       E                     dE             d eps       ncg     rms          rms(c)
DAV:   1    -0.257636748393E+03   -0.13266E-01   -0.57355E+00   672   0.432E+00    0.733E-01
RMM:   2    -0.258156405236E+03   -0.51966E+00   -0.25214E-01   676   0.143E+00    0.144E+01
RMM:   3    -0.257774236360E+03    0.38217E+00   -0.10705E-01   676   0.102E+00    0.937E+00
RMM:   4    -0.257655320081E+03    0.11892E+00   -0.47573E-02   676   0.623E-01    0.335E+00
RMM:   5    -0.257648782744E+03    0.65373E-02   -0.17720E-02   676   0.372E-01    0.287E+00
RMM:   6    -0.257647122160E+03    0.16606E-02   -0.67342E-03   676   0.224E-01    0.275E+00
RMM:   7    -0.257654443735E+03   -0.73216E-02   -0.10325E-02   675   0.280E-01    0.296E+00
RMM:   8    -0.257654007085E+03    0.43665E-03   -0.80370E-03   676   0.261E-01    0.347E+00
RMM:   9    -0.257642936755E+03    0.11070E-01   -0.43623E-03   676   0.196E-01    0.217E+00
RMM:  10    -0.257637546312E+03    0.53904E-02   -0.40733E-03   675   0.185E-01    0.758E-01
RMM:  11    -0.257638254350E+03   -0.70804E-03   -0.16900E-03   676   0.115E-01    0.700E-01
RMM:  12    -0.257639470523E+03   -0.12162E-02   -0.18300E-03   676   0.119E-01    0.960E-01
RMM:  13    -0.257638013256E+03    0.14573E-02   -0.12612E-03   676   0.108E-01    0.707E-01
RMM:  14    -0.257637298289E+03    0.71497E-03   -0.57085E-04   676   0.709E-02    0.273E-01
RMM:  15    -0.257637617672E+03   -0.31938E-03   -0.33644E-04   676   0.517E-02    0.312E-01
RMM:  16    -0.257637718642E+03   -0.10097E-03   -0.31672E-04   676   0.501E-02    0.402E-01
RMM:  17    -0.257637518180E+03    0.20046E-03   -0.23850E-04   676   0.464E-02    0.289E-01
RMM:  18    -0.257637466092E+03    0.52088E-04   -0.13489E-04   676   0.345E-02    0.166E-01
RMM:  19    -0.257637511550E+03   -0.45458E-04   -0.68254E-05   674   0.237E-02    0.131E-01
RMM:  20    -0.257637555180E+03   -0.43630E-04   -0.58796E-05   672   0.217E-02    0.184E-01
RMM:  21    -0.257637514215E+03    0.40965E-04   -0.43408E-05   672   0.199E-02    0.123E-01
RMM:  22    -0.257637503742E+03    0.10473E-04   -0.25761E-05   669   0.153E-02    0.494E-02
RMM:  23    -0.257637539493E+03   -0.35750E-04   -0.11585E-05   667   0.988E-03    0.654E-02
RMM:  24    -0.257637534469E+03    0.50236E-05   -0.89304E-06   652   0.896E-03    0.698E-02
RMM:  25    -0.257637534979E+03   -0.50971E-06   -0.51786E-06   580   0.713E-03
   8 F= -.25763753E+03 E0= -.25737065E+03  d E =-.140522E-01
       N       E                     dE             d eps       ncg     rms          rms(c)
DAV:   1    -0.257647507546E+03   -0.99731E-02   -0.51280E+00   672   0.407E+00    0.572E-01
RMM:   2    -0.258007190028E+03   -0.35968E+00   -0.15221E-01   676   0.111E+00    0.126E+01
RMM:   3    -0.257731182129E+03    0.27601E+00   -0.60399E-02   676   0.758E-01    0.723E+00
RMM:   4    -0.257656788856E+03    0.74393E-01   -0.34286E-02   676   0.536E-01    0.230E+00
RMM:   5    -0.257656744824E+03    0.44032E-04   -0.11570E-02   676   0.302E-01    0.237E+00
RMM:   6    -0.257661094858E+03   -0.43500E-02   -0.57211E-03   676   0.209E-01    0.319E+00
RMM:   7    -0.257661825045E+03   -0.73019E-03   -0.72136E-03   676   0.237E-01    0.268E+00
RMM:   8    -0.257657646416E+03    0.41786E-02   -0.63622E-03   676   0.237E-01    0.268E+00
RMM:   9    -0.257650244717E+03    0.74017E-02   -0.26500E-03   676   0.152E-01    0.137E+00
RMM:  10    -0.257648857349E+03    0.13874E-02   -0.24477E-03   676   0.143E-01    0.615E-01
RMM:  11    -0.257650175256E+03   -0.13179E-02   -0.15660E-03   676   0.110E-01    0.873E-01
RMM:  12    -0.257650099434E+03    0.75823E-04   -0.15167E-03   675   0.111E-01    0.875E-01
RMM:  13    -0.257648588815E+03    0.15106E-02   -0.10876E-03   676   0.100E-01    0.425E-01
RMM:  14    -0.257648673848E+03   -0.85033E-04   -0.40079E-04   676   0.583E-02    0.310E-01
RMM:  15    -0.257649062318E+03   -0.38847E-03   -0.42581E-04   676   0.583E-02    0.435E-01
RMM:  16    -0.257648734372E+03    0.32795E-03   -0.30939E-04   676   0.532E-02    0.349E-01
RMM:  17    -0.257648644953E+03    0.89419E-04   -0.16014E-04   676   0.380E-02    0.177E-01
RMM:  18    -0.257648743592E+03   -0.98639E-04   -0.10260E-04   676   0.292E-02    0.186E-01
RMM:  19    -0.257648783381E+03   -0.39789E-04   -0.86715E-05   674   0.267E-02    0.209E-01
RMM:  20    -0.257648703393E+03    0.79987E-04   -0.60784E-05   676   0.236E-02    0.116E-01
RMM:  21    -0.257648730638E+03   -0.27244E-04   -0.31088E-05   672   0.167E-02    0.647E-02
RMM:  22    -0.257648749692E+03   -0.19054E-04   -0.13279E-05   666   0.105E-02    0.614E-02
RMM:  23    -0.257648760814E+03   -0.11121E-04   -0.11689E-05   664   0.981E-03    0.808E-02
RMM:  24    -0.257648746979E+03    0.13834E-04   -0.71818E-06   637   0.827E-03    0.479E-02
RMM:  25    -0.257648760874E+03   -0.13894E-04   -0.33174E-06   433   0.566E-03    0.293E-02
RMM:  26    -0.257648762284E+03   -0.14101E-05   -0.23542E-06   381   0.471E-03    0.325E-02
RMM:  27    -0.257648767417E+03   -0.51330E-05   -0.21539E-06   376   0.490E-03    0.300E-02
RMM:  28    -0.257648766422E+03    0.99491E-06   -0.10781E-06   364   0.361E-03
   9 F= -.25764877E+03 E0= -.25738265E+03  d E =-.112314E-01
       N       E                     dE             d eps       ncg     rms          rms(c)
DAV:   1    -0.257652563224E+03   -0.37958E-02   -0.93047E-01   672   0.170E+00    0.217E-01
RMM:   2    -0.257696408018E+03   -0.43845E-01   -0.32425E-02   675   0.475E-01    0.501E+00
RMM:   3    -0.257661534023E+03    0.34874E-01   -0.83802E-03   688   0.259E-01    0.263E+00
RMM:   4    -0.257655100503E+03    0.64335E-02   -0.48990E-03   677   0.202E-01    0.108E+00
RMM:   5    -0.257655712757E+03   -0.61225E-03   -0.22726E-03   676   0.133E-01    0.116E+00
RMM:   6    -0.257656054220E+03   -0.34146E-03   -0.11479E-03   676   0.932E-02    0.132E+00
RMM:   7    -0.257656024371E+03    0.29849E-04   -0.16412E-03   676   0.114E-01    0.116E+00
RMM:   8    -0.257655386398E+03    0.63797E-03   -0.10790E-03   676   0.977E-02    0.126E+00
RMM:   9    -0.257653814824E+03    0.15716E-02   -0.55694E-04   676   0.689E-02    0.469E-01
RMM:  10    -0.257654054634E+03   -0.23981E-03   -0.47757E-04   676   0.613E-02    0.305E-01
RMM:  11    -0.257654482759E+03   -0.42813E-03   -0.46764E-04   676   0.594E-02    0.490E-01
RMM:  12    -0.257654098360E+03    0.38440E-03   -0.35489E-04   676   0.553E-02    0.402E-01
RMM:  13    -0.257653878389E+03    0.21997E-03   -0.21344E-04   676   0.429E-02    0.163E-01
RMM:  14    -0.257654053657E+03   -0.17527E-03   -0.13534E-04   676   0.328E-02    0.210E-01
RMM:  15    -0.257654077453E+03   -0.23795E-04   -0.11254E-04   676   0.305E-02    0.268E-01
RMM:  16    -0.257653970024E+03    0.10743E-03   -0.81851E-05   676   0.271E-02    0.133E-01
RMM:  17    -0.257653999007E+03   -0.28983E-04   -0.41829E-05   674   0.189E-02    0.910E-02
RMM:  18    -0.257654013971E+03   -0.14964E-04   -0.32216E-05   672   0.162E-02    0.847E-02
RMM:  19    -0.257654023601E+03   -0.96297E-05   -0.23322E-05   670   0.142E-02    0.101E-01
RMM:  20    -0.257654007009E+03    0.16592E-04   -0.13599E-05   667   0.113E-02    0.581E-02
RMM:  21    -0.257654017740E+03   -0.10731E-04   -0.61437E-06   616   0.742E-03    0.314E-02
RMM:  22    -0.257654025868E+03   -0.81285E-05   -0.37546E-06   453   0.581E-03    0.361E-02
RMM:  23    -0.257654025137E+03    0.73137E-06   -0.33327E-06   425   0.596E-03
  10 F= -.25765403E+03 E0= -.25738803E+03  d E =-.525872E-02
       N       E                     dE             d eps       ncg     rms          rms(c)
DAV:   1    -0.257655606895E+03   -0.15810E-02   -0.94624E-02   672   0.553E-01    0.732E-02
RMM:   2    -0.257663206530E+03   -0.75996E-02   -0.25210E-03   676   0.144E-01    0.221E+00
RMM:   3    -0.257655510066E+03    0.76965E-02   -0.11753E-03   676   0.105E-01    0.936E-01
RMM:   4    -0.257655431224E+03    0.78842E-04   -0.63245E-04   676   0.753E-02    0.304E-01
RMM:   5    -0.257655714455E+03   -0.28323E-03   -0.25291E-04   676   0.453E-02    0.349E-01
RMM:   6    -0.257655951997E+03   -0.23754E-03   -0.15300E-04   676   0.344E-02    0.579E-01
RMM:   7    -0.257655692243E+03    0.25975E-03   -0.18855E-04   676   0.393E-02    0.363E-01
RMM:   8    -0.257655568483E+03    0.12376E-03   -0.14431E-04   676   0.363E-02    0.200E-01
RMM:   9    -0.257655645194E+03   -0.76711E-04   -0.39436E-05   672   0.185E-02    0.212E-01
RMM:  10    -0.257655612747E+03    0.32447E-04   -0.32234E-05   672   0.161E-02    0.117E-01
RMM:  11    -0.257655667959E+03   -0.55212E-04   -0.35924E-05   672   0.166E-02    0.136E-01
RMM:  12    -0.257655656713E+03    0.11246E-04   -0.33473E-05   671   0.167E-02    0.133E-01
RMM:  13    -0.257655624801E+03    0.31912E-04   -0.22865E-05   671   0.144E-02    0.587E-02
RMM:  14    -0.257655643081E+03   -0.18280E-04   -0.91420E-06   654   0.878E-03    0.492E-02
RMM:  15    -0.257655654622E+03   -0.11541E-04   -0.82833E-06   649   0.816E-03    0.669E-02
RMM:  16    -0.257655648071E+03    0.65508E-05   -0.70863E-06   642   0.791E-03    0.465E-02
RMM:  17    -0.257655649157E+03   -0.10864E-05   -0.43381E-06   519   0.644E-03    0.265E-02
RMM:  18    -0.257655652370E+03   -0.32130E-05   -0.20190E-06   390   0.443E-03    0.234E-02
RMM:  19    -0.257655654484E+03   -0.21134E-05   -0.15428E-06   368   0.391E-03    0.275E-02
RMM:  20    -0.257655653531E+03    0.95314E-06   -0.12593E-06   365   0.383E-03
  11 F= -.25765565E+03 E0= -.25738966E+03  d E =-.162839E-02
       N       E                     dE             d eps       ncg     rms          rms(c)
DAV:   1    -0.257658171993E+03   -0.25175E-02   -0.18891E-01   672   0.784E-01    0.104E-01
RMM:   2    -0.257673330004E+03   -0.15158E-01   -0.48560E-03   676   0.199E-01    0.307E+00
RMM:   3    -0.257659051417E+03    0.14279E-01   -0.22435E-03   676   0.146E-01    0.136E+00
RMM:   4    -0.257658007722E+03    0.10437E-02   -0.13080E-03   676   0.107E-01    0.456E-01
RMM:   5    -0.257658432316E+03   -0.42459E-03   -0.50647E-04   676   0.638E-02    0.526E-01
RMM:   6    -0.257658681027E+03   -0.24871E-03   -0.29676E-04   676   0.477E-02    0.717E-01
RMM:   7    -0.257658486171E+03    0.19486E-03   -0.38045E-04   676   0.552E-02    0.511E-01
RMM:   8    -0.257658137900E+03    0.34827E-03   -0.31441E-04   676   0.534E-02    0.280E-01
RMM:   9    -0.257658234429E+03   -0.96530E-04   -0.91136E-05   675   0.284E-02    0.324E-01
RMM:  10    -0.257658128770E+03    0.10566E-03   -0.54048E-05   672   0.211E-02    0.142E-01
RMM:  11    -0.257658241312E+03   -0.11254E-03   -0.53752E-05   675   0.204E-02    0.168E-01
RMM:  12    -0.257658248672E+03   -0.73608E-05   -0.53343E-05   672   0.207E-02    0.188E-01
RMM:  13    -0.257658167207E+03    0.81466E-04   -0.40138E-05   672   0.192E-02    0.777E-02
RMM:  14    -0.257658200896E+03   -0.33689E-04   -0.15450E-05   668   0.116E-02    0.578E-02
RMM:  15    -0.257658219393E+03   -0.18497E-04   -0.12212E-05   666   0.986E-03    0.809E-02
RMM:  16    -0.257658212180E+03    0.72128E-05   -0.11493E-05   668   0.981E-03    0.688E-02
RMM:  17    -0.257658209618E+03    0.25617E-05   -0.88799E-06   656   0.900E-03    0.401E-02
RMM:  18    -0.257658213313E+03   -0.36941E-05   -0.31641E-06   423   0.548E-03    0.271E-02
RMM:  19    -0.257658217346E+03   -0.40332E-05   -0.19543E-06   380   0.437E-03    0.268E-02
RMM:  20    -0.257658218411E+03   -0.10657E-05   -0.18577E-06   368   0.446E-03    0.291E-02
RMM:  21    -0.257658218062E+03    0.34976E-06   -0.11126E-06   363   0.372E-03
  12 F= -.25765822E+03 E0= -.25739236E+03  d E =-.256453E-02
       N       E                     dE             d eps       ncg     rms          rms(c)
DAV:   1    -0.257661689255E+03   -0.34708E-02   -0.31598E-01   672   0.101E+00    0.138E-01
RMM:   2    -0.257686647353E+03   -0.24958E-01   -0.88078E-03   676   0.266E-01    0.385E+00
RMM:   3    -0.257664369890E+03    0.22277E-01   -0.38012E-03   677   0.189E-01    0.182E+00
RMM:   4    -0.257661667742E+03    0.27021E-02   -0.22462E-03   676   0.140E-01    0.629E-01
RMM:   5    -0.257662215670E+03   -0.54793E-03   -0.88629E-04   676   0.842E-02    0.678E-01
RMM:   6    -0.257662521163E+03   -0.30549E-03   -0.47882E-04   676   0.604E-02    0.874E-01
RMM:   7    -0.257662363616E+03    0.15755E-03   -0.62735E-04   676   0.706E-02    0.668E-01
RMM:   8    -0.257661796407E+03    0.56721E-03   -0.52805E-04   676   0.690E-02    0.444E-01
RMM:   9    -0.257661828416E+03   -0.32009E-04   -0.15203E-04   676   0.369E-02    0.441E-01
RMM:  10    -0.257661650489E+03    0.17793E-03   -0.11208E-04   676   0.304E-02    0.160E-01
RMM:  11    -0.257661838000E+03   -0.18751E-03   -0.87437E-05   676   0.259E-02    0.220E-01
RMM:  12    -0.257661827005E+03    0.10996E-04   -0.88438E-05   676   0.266E-02    0.226E-01
RMM:  13    -0.257661716730E+03    0.11027E-03   -0.66512E-05   676   0.247E-02    0.102E-01
RMM:  14    -0.257661758681E+03   -0.41951E-04   -0.25224E-05   671   0.148E-02    0.747E-02
RMM:  15    -0.257661786027E+03   -0.27346E-04   -0.19668E-05   671   0.125E-02    0.101E-01
RMM:  16    -0.257661776856E+03    0.91716E-05   -0.19122E-05   672   0.125E-02    0.874E-02
RMM:  17    -0.257661771129E+03    0.57269E-05   -0.14794E-05   668   0.116E-02    0.527E-02
RMM:  18    -0.257661774952E+03   -0.38235E-05   -0.51375E-06   553   0.682E-03    0.326E-02
RMM:  19    -0.257661782324E+03   -0.73715E-05   -0.29376E-06   410   0.523E-03    0.319E-02
RMM:  20    -0.257661784528E+03   -0.22046E-05   -0.30778E-06   417   0.551E-03    0.418E-02
RMM:  21    -0.257661781964E+03    0.25646E-05   -0.21317E-06   377   0.511E-03    0.201E-02
RMM:  22    -0.257661784368E+03   -0.24049E-05   -0.71473E-07   363   0.281E-03    0.101E-02
RMM:  23    -0.257661786364E+03   -0.19954E-05   -0.53753E-07   349   0.229E-03    0.134E-02
RMM:  24    -0.257661785503E+03    0.86104E-06   -0.38020E-07   348   0.212E-03
  13 F= -.25766179E+03 E0= -.25739609E+03  d E =-.356744E-02
       N       E                     dE             d eps       ncg     rms          rms(c)
DAV:   1    -0.257666085037E+03   -0.42987E-02   -0.50689E-01   672   0.128E+00    0.174E-01
RMM:   2    -0.257704809532E+03   -0.38724E-01   -0.14099E-02   676   0.336E-01    0.469E+00
RMM:   3    -0.257671080381E+03    0.33729E-01   -0.60595E-03   677   0.238E-01    0.229E+00
RMM:   4    -0.257666329546E+03    0.47508E-02   -0.34149E-03   676   0.172E-01    0.794E-01
RMM:   5    -0.257666922526E+03   -0.59298E-03   -0.13586E-03   676   0.104E-01    0.820E-01
RMM:   6    -0.257667493861E+03   -0.57134E-03   -0.72539E-04   676   0.743E-02    0.110E+00
RMM:   7    -0.257667238449E+03    0.25541E-03   -0.96047E-04   676   0.873E-02    0.860E-01
RMM:   8    -0.257666951251E+03    0.28720E-03   -0.76149E-04   676   0.827E-02    0.934E-01
RMM:   9    -0.257666108267E+03    0.84298E-03   -0.29754E-04   676   0.512E-02    0.461E-01
RMM:  10    -0.257666130371E+03   -0.22104E-04   -0.25436E-04   676   0.459E-02    0.194E-01
RMM:  11    -0.257666347187E+03   -0.21682E-03   -0.14952E-04   676   0.336E-02    0.292E-01
RMM:  12    -0.257666312136E+03    0.35051E-04   -0.15717E-04   676   0.356E-02    0.283E-01
RMM:  13    -0.257666151631E+03    0.16051E-03   -0.11060E-04   676   0.320E-02    0.134E-01
RMM:  14    -0.257666200904E+03   -0.49274E-04   -0.38580E-05   671   0.182E-02    0.957E-02
RMM:  15    -0.257666236171E+03   -0.35266E-04   -0.30861E-05   672   0.157E-02    0.112E-01
RMM:  16    -0.257666234793E+03    0.13776E-05   -0.32031E-05   673   0.163E-02    0.107E-01
RMM:  17    -0.257666219631E+03    0.15162E-04   -0.22379E-05   670   0.144E-02    0.685E-02
RMM:  18    -0.257666224341E+03   -0.47098E-05   -0.83111E-06   653   0.857E-03    0.395E-02
RMM:  19    -0.257666234333E+03   -0.99921E-05   -0.41382E-06   487   0.602E-03    0.335E-02
RMM:  20    -0.257666238995E+03   -0.46619E-05   -0.43914E-06   515   0.629E-03    0.466E-02
RMM:  21    -0.257666235377E+03    0.36180E-05   -0.29359E-06   397   0.583E-03    0.259E-02
RMM:  22    -0.257666237845E+03   -0.24684E-05   -0.10607E-06   364   0.343E-03    0.104E-02
RMM:  23    -0.257666240647E+03   -0.28017E-05   -0.65607E-07   354   0.251E-03    0.144E-02
RMM:  24    -0.257666239907E+03    0.73952E-06   -0.51118E-07   350   0.239E-03
  14 F= -.25766624E+03 E0= -.25740074E+03  d E =-.445440E-02
       N       E                     dE             d eps       ncg     rms          rms(c)
DAV:   1    -0.257671285668E+03   -0.50450E-02   -0.69979E-01   672   0.151E+00    0.203E-01
RMM:   2    -0.257722284428E+03   -0.50999E-01   -0.19853E-02   676   0.396E-01    0.532E+00
RMM:   3    -0.257678535258E+03    0.43749E-01   -0.81065E-03   679   0.274E-01    0.262E+00
RMM:   4    -0.257671973329E+03    0.65619E-02   -0.45084E-03   676   0.197E-01    0.939E-01
RMM:   5    -0.257672558842E+03   -0.58551E-03   -0.18444E-03   676   0.121E-01    0.939E-01
RMM:   6    -0.257673350168E+03   -0.79133E-03   -0.96766E-04   676   0.857E-02    0.128E+00
RMM:   7    -0.257672979040E+03    0.37113E-03   -0.13008E-03   676   0.102E-01    0.991E-01
RMM:   8    -0.257672484259E+03    0.49478E-03   -0.10290E-03   676   0.960E-02    0.103E+00
RMM:   9    -0.257671519267E+03    0.96499E-03   -0.39334E-04   676   0.589E-02    0.559E-01
RMM:  10    -0.257671446813E+03    0.72454E-04   -0.33468E-04   676   0.526E-02    0.229E-01
RMM:  11    -0.257671749199E+03   -0.30239E-03   -0.20683E-04   676   0.395E-02    0.349E-01
RMM:  12    -0.257671662680E+03    0.86520E-04   -0.21757E-04   676   0.418E-02    0.312E-01
RMM:  13    -0.257671483590E+03    0.17909E-03   -0.14971E-04   676   0.370E-02    0.157E-01
RMM:  14    -0.257671533145E+03   -0.49555E-04   -0.52207E-05   674   0.211E-02    0.116E-01
RMM:  15    -0.257671578242E+03   -0.45097E-04   -0.46408E-05   674   0.192E-02    0.133E-01
RMM:  16    -0.257671570729E+03    0.75126E-05   -0.43391E-05   675   0.190E-02    0.122E-01
RMM:  17    -0.257671551836E+03    0.18893E-04   -0.29714E-05   672   0.166E-02    0.799E-02
RMM:  18    -0.257671557880E+03   -0.60440E-05   -0.11608E-05   666   0.100E-02    0.501E-02
RMM:  19    -0.257671571390E+03   -0.13510E-04   -0.77991E-06   624   0.799E-03    0.464E-02
RMM:  20    -0.257671573152E+03   -0.17616E-05   -0.66086E-06   643   0.766E-03    0.501E-02
RMM:  21    -0.257671570920E+03    0.22313E-05   -0.38669E-06   478   0.627E-03    0.253E-02
RMM:  22    -0.257671574650E+03   -0.37296E-05   -0.15854E-06   369   0.399E-03    0.179E-02
RMM:  23    -0.257671578090E+03   -0.34398E-05   -0.14819E-06   364   0.388E-03    0.227E-02
RMM:  24    -0.257671576026E+03    0.20637E-05   -0.86074E-07   356   0.325E-03    0.138E-02
RMM:  25    -0.257671577813E+03   -0.17873E-05   -0.32013E-07   354   0.186E-03    0.998E-03
RMM:  26    -0.257671578053E+03   -0.23931E-06   -0.26822E-07   346   0.161E-03
  15 F= -.25767158E+03 E0= -.25740626E+03  d E =-.533815E-02
