 vasp.5.4.4.18Apr17-6-g9f103f2a35 (build Oct 13 2018 23:10:52) complex          
  
 executed on           IFC91_ompi date 2020.07.23  05:23:26
 running on  120 total cores
 each image running on   24 cores
 distrk:  each k-point on   24 cores,    1 groups
 distr:  one band on NCORES_PER_BAND=   1 cores,   24 groups


--------------------------------------------------------------------------------------------------------


 INCAR:
 POTCAR:   PAW_PBE Ni 06Sep2000                   
 POTCAR:    PAW_PBE S 17Jan2003                   

 ----------------------------------------------------------------------------- 
|                                                                             |
|           W    W    AA    RRRRR   N    N  II  N    N   GGGG   !!!           |
|           W    W   A  A   R    R  NN   N  II  NN   N  G    G  !!!           |
|           W    W  A    A  R    R  N N  N  II  N N  N  G       !!!           |
|           W WW W  AAAAAA  RRRRR   N  N N  II  N  N N  G  GGG   !            |
|           WW  WW  A    A  R   R   N   NN  II  N   NN  G    G                |
|           W    W  A    A  R    R  N    N  II  N    N   GGGG   !!!           |
|                                                                             |
|      For optimal performance we recommend to set                            |
|        NCORE= 4 - approx SQRT( number of cores)                             |
|      NCORE specifies how many cores store one orbital (NPAR=cpu/NCORE).     |
|      This setting can  greatly improve the performance of VASP for DFT.     |
|      The default,   NCORE=1            might be grossly inefficient         |
|      on modern multi-core architectures or massively parallel machines.     |
|      Do your own testing !!!!                                               |
|      Unfortunately you need to use the default for GW and RPA calculations. |
|      (for HF NCORE is supported but not extensively tested yet)             |
|                                                                             |
 ----------------------------------------------------------------------------- 

 POTCAR:   PAW_PBE Ni 06Sep2000                   
  local pseudopotential read in
  partial core-charges read in
  atomic valenz-charges read in
  non local Contribution for L=           2  read in
    real space projection operators read in
  non local Contribution for L=           2  read in
    real space projection operators read in
  non local Contribution for L=           0  read in
    real space projection operators read in
  non local Contribution for L=           0  read in
    real space projection operators read in
  non local Contribution for L=           1  read in
    real space projection operators read in
  non local Contribution for L=           1  read in
    real space projection operators read in
    PAW grid and wavefunctions read in
 
   number of l-projection  operators is LMAX  =           6
   number of lm-projection operators is LMMAX =          18
 
 POTCAR:    PAW_PBE S 17Jan2003                   
  local pseudopotential read in
  partial core-charges read in
  atomic valenz-charges read in
  non local Contribution for L=           0  read in
    real space projection operators read in
  non local Contribution for L=           0  read in
    real space projection operators read in
  non local Contribution for L=           1  read in
    real space projection operators read in
  non local Contribution for L=           1  read in
    real space projection operators read in
    PAW grid and wavefunctions read in
 
   number of l-projection  operators is LMAX  =           4
   number of lm-projection operators is LMMAX =           8
 

 ----------------------------------------------------------------------------- 
|                                                                             |
|  ADVICE TO THIS USER RUNNING 'VASP/VAMP'   (HEAR YOUR MASTER'S VOICE ...):  |
|                                                                             |
|      You have a (more or less) 'large supercell' and for larger cells       |
|      it might be more efficient to use real space projection operators      |
|      So try LREAL= Auto  in the INCAR   file.                               |
|      Mind: If you want to do a very accurate calculations keep the          |
|      reciprocal projection scheme          (i.e. LREAL=.FALSE.)             |
|                                                                             |
 ----------------------------------------------------------------------------- 

 PAW_PBE Ni 06Sep2000                   :
 energy of atom  1       EATOM=-1077.9025
 kinetic energy error for atom=    0.0101 (will be added to EATOM!!)
  PAW_PBE S 17Jan2003                   :
 energy of atom  2       EATOM= -276.8230
 kinetic energy error for atom=    0.0046 (will be added to EATOM!!)
 
 
 POSCAR: Ni   S                                  
  positions in direct lattice
  No initial velocities read in
 exchange correlation table for  LEXCH =        8
   RHO(1)=    0.500       N(1)  =     2000
   RHO(2)=  100.500       N(2)  =     4000

 VTST: version 3.2, (02/03/18)

 CHAIN: initializing optimizer
 
 OPT: Using Quick-Min optimizer
 OPT: QM, Init
 OPT: QM, MAXMOVE       0.200000
 OPT: QM, TIMESTEP      0.100000
 
 CHAIN: Read ICHAIN            0
 CHAIN: Running the NEB
 NEB:          SPRING     -5.000000
 NEB:          LCLIMB      T
 NEB:     LTANGENTOLD      F
 NEB:           LDNEB      F
 NEB:        LDNEBORG      F
 NEB:        LNEBCELL      F
 NEB:          EFIRST      0.000000
 NEB:           ELAST      0.000000
 
 POSCAR: Ni   S                                  
  positions in direct lattice
  No initial velocities read in
 
 POSCAR: Ni   S                                  
  positions in direct lattice
  No initial velocities read in
 


--------------------------------------------------------------------------------------------------------


 ion  position               nearest neighbor table
   1  0.350  0.596  0.410-  19 2.41  10 2.41   8 2.44  16 2.45   3 2.51  17 2.52   2 2.52  24 2.53

   2  0.451  0.663  0.377-  19 2.41   5 2.41   4 2.45  16 2.45   6 2.51  20 2.51   3 2.52   1 2.52

   3  0.412  0.663  0.497-  10 2.41   5 2.41   8 2.44   4 2.45   1 2.51  11 2.52   2 2.52  12 2.52

   4  0.513  0.723  0.464-   5 2.30   3 2.45   2 2.45  12 2.45   7 2.45   6 2.45
   5  0.515  0.609  0.464-   4 2.30  28 2.36  12 2.40   7 2.41   3 2.41   2 2.41   6 2.41  14 2.47
                            23 2.47  19 2.48  10 2.48  13 2.49
   6  0.577  0.665  0.378-  23 2.41   5 2.41  35 2.45   4 2.45   7 2.51   2 2.51  32 2.52  20 2.52

   7  0.616  0.665  0.497-   5 2.41  14 2.41   4 2.45  33 2.45   6 2.51  32 2.51  12 2.52  15 2.53

   8  0.316  0.593  0.528-  10 2.30   1 2.44   3 2.44   9 2.45  24 2.45  11 2.46
   9  0.350  0.489  0.584-  10 2.42  27 2.44   8 2.45  42 2.49  24 2.50  11 2.53  25 2.53  39 2.60

  10  0.415  0.542  0.497-   8 2.30  28 2.36   3 2.41  24 2.41  11 2.41   1 2.41   9 2.42  26 2.48
                            19 2.48  13 2.48   5 2.48  27 2.48
  11  0.413  0.597  0.604-  13 2.40  10 2.41  40 2.46   8 2.46  12 2.51   3 2.52  39 2.53   9 2.53

  12  0.514  0.663  0.571-   5 2.40  13 2.41  40 2.43   4 2.45  11 2.51  15 2.51   3 2.52   7 2.52

  13  0.515  0.543  0.570-  40 2.30  28 2.36  11 2.40  41 2.40  12 2.41  15 2.41  39 2.46  27 2.46
                            10 2.48  31 2.48  14 2.49   5 2.49
  14  0.615  0.545  0.497-  33 2.29  28 2.36  15 2.41  34 2.41   7 2.41  37 2.41  32 2.41   5 2.47
                            23 2.47  30 2.48  31 2.49  13 2.49
  15  0.616  0.599  0.604-  14 2.41  13 2.41  40 2.44  33 2.45  41 2.50  12 2.51  34 2.52   7 2.53

  16  0.393  0.594  0.296-  19 2.30  18 2.45   2 2.45   1 2.45  17 2.45  20 2.45
  17  0.352  0.489  0.344-  19 2.41  26 2.42  50 2.44  16 2.45  47 2.51   1 2.52  18 2.52  24 2.53

  18  0.454  0.491  0.270-  19 2.41  21 2.41  48 2.45  16 2.45  20 2.50  22 2.51  17 2.52  47 2.52

  19  0.454  0.543  0.379-  16 2.30  28 2.36  17 2.41  18 2.41   2 2.41   1 2.41  20 2.42  21 2.47
                            10 2.48   5 2.48  23 2.48  26 2.49
  20  0.515  0.598  0.291-  23 2.41  19 2.42  35 2.45  16 2.45  18 2.50  22 2.51   2 2.51   6 2.52

  21  0.517  0.438  0.359-  48 2.30  28 2.36  47 2.41  52 2.41  49 2.41  18 2.41  22 2.42  19 2.47
                            30 2.48  29 2.48  23 2.48  26 2.48
  22  0.579  0.492  0.271-  23 2.41  21 2.42  35 2.45  48 2.45  20 2.51  18 2.51  49 2.51  36 2.52

  23  0.578  0.545  0.379-  35 2.30  28 2.36  32 2.41  36 2.41  22 2.41   6 2.41  20 2.41   5 2.47
                            14 2.47  30 2.48  19 2.48  21 2.48
  24  0.313  0.488  0.464-  26 2.40  10 2.41  50 2.45   8 2.45   9 2.50  25 2.51  17 2.53   1 2.53

  25  0.353  0.381  0.517-  26 2.40  27 2.43  42 2.46  50 2.46  43 2.50  51 2.50  24 2.51   9 2.53

  26  0.416  0.437  0.432-  50 2.30  28 2.36  25 2.40  24 2.40  51 2.40  17 2.42  47 2.42  29 2.48
                            10 2.48  27 2.48  21 2.48  19 2.49
  27  0.455  0.437  0.550-  42 2.33  28 2.35  43 2.41  25 2.43   9 2.44  13 2.46  31 2.47  44 2.47
                            26 2.48  10 2.48  29 2.49  39 2.51
  28  0.516  0.491  0.465-  27 2.35  14 2.36  26 2.36  10 2.36   5 2.36  29 2.36  31 2.36  13 2.36
                            30 2.36  21 2.36  19 2.36  23 2.36
  29  0.517  0.373  0.464-  55 2.30  28 2.36  43 2.40  51 2.41  45 2.41  53 2.41  52 2.41  26 2.48
                            31 2.48  21 2.48  30 2.48  27 2.49
  30  0.617  0.439  0.432-  54 2.30  28 2.36  37 2.41  38 2.41  53 2.41  49 2.41  36 2.41  23 2.48
                            14 2.48  21 2.48  29 2.48  31 2.49
  31  0.578  0.438  0.550-  46 2.30  28 2.36  41 2.40  45 2.41  34 2.41  38 2.41  44 2.44  27 2.47
                            29 2.48  13 2.48  30 2.49  14 2.49
  32  0.680  0.600  0.411-  23 2.41  14 2.41  35 2.45  33 2.45   7 2.51  37 2.51  36 2.52   6 2.52

  33  0.712  0.597  0.529-  14 2.29  34 2.45  15 2.45  37 2.45  32 2.45   7 2.45
  34  0.681  0.492  0.584-  31 2.41  14 2.41  46 2.44  33 2.45  41 2.50  38 2.51  37 2.52  15 2.52

  35  0.637  0.597  0.296-  23 2.30  22 2.45  36 2.45  20 2.45   6 2.45  32 2.45
  36  0.681  0.493  0.345-  23 2.41  30 2.41  35 2.45  54 2.45  49 2.51  37 2.51  22 2.52  32 2.52

  37  0.720  0.493  0.464-  30 2.41  14 2.41  54 2.45  33 2.45  36 2.51  32 2.51  34 2.52  38 2.52

  38  0.682  0.386  0.518-  30 2.41  31 2.41  46 2.43  54 2.45  34 2.51  53 2.52  37 2.52  45 2.52

  39  0.452  0.492  0.663-  56 1.84  40 2.44  13 2.46  27 2.51  11 2.53  42 2.53  41 2.54   9 2.60
                            44 2.61
  40  0.515  0.596  0.673-  13 2.30  12 2.43  15 2.44  39 2.44  11 2.46  41 2.47
  41  0.579  0.492  0.657-  13 2.40  31 2.40  46 2.47  40 2.47  15 2.50  34 2.50  44 2.54  39 2.54

  42  0.393  0.384  0.633-  56 1.81  27 2.33  25 2.46  43 2.46   9 2.49  44 2.51  39 2.53
  43  0.455  0.317  0.550-  29 2.40  27 2.41  55 2.46  42 2.46  51 2.50  25 2.50  45 2.52  44 2.56

  44  0.519  0.381  0.640-  31 2.44  46 2.45  27 2.47  42 2.51  45 2.52  41 2.54  43 2.56  39 2.61
                            56 2.61
  45  0.581  0.318  0.551-  31 2.41  29 2.41  46 2.45  55 2.45  44 2.52  43 2.52  38 2.52  53 2.53

  46  0.641  0.387  0.632-  31 2.30  38 2.43  34 2.44  44 2.45  45 2.45  41 2.47
  47  0.416  0.383  0.324-  21 2.41  26 2.42  50 2.44  48 2.45  17 2.51  52 2.52  18 2.52  51 2.53

  48  0.517  0.387  0.256-  21 2.30  47 2.45  18 2.45  52 2.45  49 2.45  22 2.45
  49  0.619  0.386  0.324-  21 2.41  30 2.41  48 2.45  54 2.45  36 2.51  22 2.51  53 2.52  52 2.52

  50  0.320  0.385  0.398-  26 2.30  47 2.44  17 2.44  24 2.45  51 2.45  25 2.46
  51  0.416  0.317  0.431-  26 2.40  29 2.41  50 2.45  55 2.46  43 2.50  25 2.50  52 2.53  47 2.53

  52  0.518  0.318  0.356-  21 2.41  29 2.41  55 2.45  48 2.45  53 2.51  47 2.52  49 2.52  51 2.53

  53  0.620  0.319  0.430-  30 2.41  29 2.41  55 2.44  54 2.45  52 2.51  49 2.52  38 2.52  45 2.53

  54  0.715  0.389  0.400-  30 2.30  53 2.45  37 2.45  38 2.45  49 2.45  36 2.45
  55  0.519  0.258  0.463-  29 2.30  53 2.44  52 2.45  45 2.45  51 2.46  43 2.46
  56  0.417  0.422  0.712-  42 1.81  39 1.84  44 2.61
 

IMPORTANT INFORMATION: All symmetrisations will be switched off!
NOSYMM: (Re-)initialisation of all symmetry stuff for point group C_1.

 
 
 KPOINTS: 4x2x1                                   

Automatic generation of k-mesh.
Space group operators:
 irot       det(A)        alpha          n_x          n_y          n_z        tau_x        tau_y        tau_z
    1     1.000000     0.000000     1.000000     0.000000     0.000000     0.000000     0.000000     0.000000
 
 Subroutine IBZKPT returns following result:
 ===========================================
 
 Found      1 irreducible k-points:
 
 Following reciprocal coordinates:
            Coordinates               Weight
  0.000000  0.000000  0.000000      1.000000
 
 Following cartesian coordinates:
            Coordinates               Weight
  0.000000  0.000000  0.000000      1.000000
 


--------------------------------------------------------------------------------------------------------




 Dimension of arrays:
   k-points           NKPTS =      1   k-points in BZ     NKDIM =      1   number of bands    NBANDS=    336
   number of dos      NEDOS =    301   number of ions     NIONS =     56
   non local maximal  LDIM  =      6   non local SUM 2l+1 LMDIM =     18
   total plane-waves  NPLWV = 941192
   max r-space proj   IRMAX =      1   max aug-charges    IRDMAX=   4013
   dimension x,y,z NGX =    98 NGY =   98 NGZ =   98
   dimension x,y,z NGXF=   196 NGYF=  196 NGZF=  196
   support grid    NGXF=   196 NGYF=  196 NGZF=  196
   ions per type =              55   1
   NGX,Y,Z   is equivalent  to a cutoff of   8.15,  8.15,  8.15 a.u.
   NGXF,Y,Z  is equivalent  to a cutoff of  16.29, 16.29, 16.29 a.u.

 SYSTEM =  neb_test                                
 POSCAR =  Ni   S                                  

 Startparameter for this run:
   NWRITE =      1    write-flag & timer
   PREC   = normal    normal or accurate (medium, high low for compatibility)
   ISTART =      0    job   : 0-new  1-cont  2-samecut
   ICHARG =      2    charge: 1-file 2-atom 10-const
   ISPIN  =      1    spin polarized calculation?
   LNONCOLLINEAR =      F non collinear calculations
   LSORBIT =      F    spin-orbit coupling
   INIWAV =      1    electr: 0-lowe 1-rand  2-diag
   LASPH  =      F    aspherical Exc in radial PAW
   METAGGA=      F    non-selfconsistent MetaGGA calc.

 Electronic Relaxation 1
   ENCUT  =  400.0 eV  29.40 Ry    5.42 a.u.  32.61 32.61 32.61*2*pi/ulx,y,z
   ENINI  =  400.0     initial cutoff
   ENAUG  =  544.6 eV  augmentation charge cutoff
   NELM   =    100;   NELMIN=  8; NELMDL= -5     # of ELM steps 
   EDIFF  = 0.1E-05   stopping-criterion for ELM
   LREAL  =      F    real-space projection
   NLSPLINE    = F    spline interpolate recip. space projectors
   LCOMPAT=      F    compatible to vasp.4.4
   GGA_COMPAT  = T    GGA compatible to vasp.4.4-vasp.4.6
   LMAXPAW     = -100 max onsite density
   LMAXMIX     =    2 max onsite mixed and CHGCAR
   VOSKOWN=      0    Vosko Wilk Nusair interpolation
   ROPT   =    0.00000   0.00000
 Ionic relaxation
   EDIFFG = -.1E+00   stopping-criterion for IOM
   NSW    =    500    number of steps for IOM
   NBLOCK =      1;   KBLOCK =    500    inner block; outer block 
   IBRION =      3    ionic relax: 0-MD 1-quasi-New 2-CG
   NFREE  =      0    steps in history (QN), initial steepest desc. (CG)
   ISIF   =      2    stress and relaxation
   IWAVPR =     11    prediction:  0-non 1-charg 2-wave 3-comb
   ISYM   =      0    0-nonsym 1-usesym 2-fastsym
   LCORR  =      T    Harris-Foulkes like correction to forces

   POTIM  = 0.0000    time-step for ionic-motion
   TEIN   =    0.0    initial temperature
   TEBEG  =    0.0;   TEEND  =   0.0 temperature during run
   SMASS  =  -3.00    Nose mass-parameter (am)
   estimated Nose-frequenzy (Omega)   =  0.10E-29 period in steps =  0.00 mass=  -0.914E-26a.u.
   SCALEE = 1.0000    scale energy and forces
   NPACO  =    256;   APACO  = 16.0  distance and # of slots for P.C.
   PSTRESS=    0.0 pullay stress

  Mass of Ions in am
   POMASS =  58.69 32.07
  Ionic Valenz
   ZVAL   =  10.00  6.00
  Atomic Wigner-Seitz radii
   RWIGS  =  -1.00 -1.00
  virtual crystal weights 
   VCA    =   1.00  1.00
   NELECT =     556.0000    total number of electrons
   NUPDOWN=      -1.0000    fix difference up-down

 DOS related values:
   EMIN   =  10.00;   EMAX   =-10.00  energy-range for DOS
   EFERMI =   0.00
   ISMEAR =     0;   SIGMA  =   0.05  broadening in eV -4-tet -1-fermi 0-gaus

 Electronic relaxation 2 (details)
   IALGO  =     68    algorithm
   LDIAG  =      T    sub-space diagonalisation (order eigenvalues)
   LSUBROT=      F    optimize rotation matrix (better conditioning)
   TURBO    =      0    0=normal 1=particle mesh
   IRESTART =      0    0=no restart 2=restart with 2 vectors
   NREBOOT  =      0    no. of reboots
   NMIN     =      0    reboot dimension
   EREF     =   0.00    reference energy to select bands
   IMIX   =      4    mixing-type and parameters
     AMIX     =   0.40;   BMIX     =  1.00
     AMIX_MAG =   1.60;   BMIX_MAG =  1.00
     AMIN     =   0.10
     WC   =   100.;   INIMIX=   1;  MIXPRE=   1;  MAXMIX= -45

 Intra band minimization:
   WEIMIN = 0.0010     energy-eigenvalue tresh-hold
   EBREAK =  0.74E-09  absolut break condition
   DEPER  =   0.30     relativ break condition  

   TIME   =   0.40     timestep for ELM

  volume/ion in A,a.u.               =     142.86       964.05
  Fermi-wavevector in a.u.,A,eV,Ry     =   0.673085  1.271946  6.164026  0.453043
  Thomas-Fermi vector in A             =   1.749399
 
 Write flags
   LWAVE        =      F    write WAVECAR
   LDOWNSAMPLE  =      F    k-point downsampling of WAVECAR
   LCHARG       =      F    write CHGCAR
   LVTOT        =      F    write LOCPOT, total local potential
   LVHAR        =      F    write LOCPOT, Hartree potential only
   LELF         =      F    write electronic localiz. function (ELF)
   LORBIT       =      0    0 simple, 1 ext, 2 COOP (PROOUT), +10 PAW based schemes


 Dipole corrections
   LMONO  =      F    monopole corrections only (constant potential shift)
   LDIPOL =      F    correct potential (dipole corrections)
   IDIPOL =      0    1-x, 2-y, 3-z, 4-all directions 
   EPSILON=  1.0000000 bulk dielectric constant

 Exchange correlation treatment:
   GGA     =    --    GGA type
   LEXCH   =     8    internal setting for exchange type
   VOSKOWN=      0    Vosko Wilk Nusair interpolation
   LHFCALC =     F    Hartree Fock is set to
   LHFONE  =     F    Hartree Fock one center treatment
   AEXX    =    0.0000 exact exchange contribution

 Linear response parameters
   LEPSILON=     F    determine dielectric tensor
   LRPA    =     F    only Hartree local field effects (RPA)
   LNABLA  =     F    use nabla operator in PAW spheres
   LVEL    =     F    velocity operator in full k-point grid
   LINTERFAST=   F  fast interpolation
   KINTER  =     0    interpolate to denser k-point grid
   CSHIFT  =0.1000    complex shift for real part using Kramers Kronig
   OMEGAMAX=  -1.0    maximum frequency
   DEG_THRESHOLD= 0.2000000E-02 threshold for treating states as degnerate
   RTIME   =   -0.100 relaxation time in fs
  (WPLASMAI=    0.000 imaginary part of plasma frequency in eV, 0.658/RTIME)
   DFIELD  = 0.0000000 0.0000000 0.0000000 field for delta impulse in time
 
 Orbital magnetization related:
   ORBITALMAG=     F  switch on orbital magnetization
   LCHIMAG   =     F  perturbation theory with respect to B field
   DQ        =  0.001000  dq finite difference perturbation B field
   LLRAUG    =     F  two centre corrections for induced B field



--------------------------------------------------------------------------------------------------------


 quickmin algorithm: (dynamic with friction)
 charge density and potential will be updated during run
 non-spin polarized calculation
 RMM-DIIS sequential band-by-band and
  variant of blocked Davidson during initial phase
 perform sub-space diagonalisation
    before iterative eigenvector-optimisation
 modified Broyden-mixing scheme, WC =      100.0
 initial mixing is a Kerker type mixing with AMIX =  0.4000 and BMIX =      1.0000
 Hartree-type preconditioning will be used
 using additional bands           58
 reciprocal scheme for non local part
 use partial core corrections
 calculate Harris-corrections to forces 
   (improved forces if not selfconsistent)
 use gradient corrections 
 use of overlap-Matrix (Vanderbilt PP)
 Gauss-broadening in eV      SIGMA  =   0.05


--------------------------------------------------------------------------------------------------------


  energy-cutoff  :      400.00
  volume of cell :     8000.00
      direct lattice vectors                 reciprocal lattice vectors
    20.000000000  0.000000000  0.000000000     0.050000000  0.000000000  0.000000000
     0.000000000 20.000000000  0.000000000     0.000000000  0.050000000  0.000000000
     0.000000000  0.000000000 20.000000000     0.000000000  0.000000000  0.050000000

  length of vectors
    20.000000000 20.000000000 20.000000000     0.050000000  0.050000000  0.050000000


 
 k-points in units of 2pi/SCALE and weight: 4x2x1                                   
   0.00000000  0.00000000  0.00000000       1.000
 
 k-points in reciprocal lattice and weights: 4x2x1                                   
   0.00000000  0.00000000  0.00000000       1.000
 
 position of ions in fractional coordinates (direct lattice) 
   0.35009820  0.59596230  0.41033966
   0.45147040  0.66324621  0.37738560
   0.41192773  0.66261759  0.49701650
   0.51293188  0.72339515  0.46442991
   0.51467716  0.60856202  0.46435092
   0.57707144  0.66505736  0.37779512
   0.61579583  0.66531309  0.49699173
   0.31649987  0.59280126  0.52767247
   0.34959573  0.48885321  0.58353080
   0.41491322  0.54232162  0.49666718
   0.41286228  0.59650390  0.60425630
   0.51373626  0.66346638  0.57124601
   0.51466151  0.54289225  0.57031459
   0.61541528  0.54466722  0.49697657
   0.61612370  0.59871431  0.60443481
   0.39267004  0.59376756  0.29554004
   0.35175192  0.48897446  0.34409764
   0.45381965  0.49084077  0.27020613
   0.45354526  0.54279512  0.37889297
   0.51516680  0.59800261  0.29092105
   0.51668431  0.43840231  0.35874360
   0.57919373  0.49227106  0.27057109
   0.57752937  0.54450712  0.37920510
   0.31254319  0.48790171  0.46414641
   0.35251529  0.38110264  0.51707338
   0.41634279  0.43670786  0.43192261
   0.45483353  0.43745618  0.54987493
   0.51587471  0.49070456  0.46456721
   0.51742674  0.37282753  0.46399157
   0.61692689  0.43944066  0.43163095
   0.57834717  0.43831433  0.54975089
   0.67961635  0.60003114  0.41101075
   0.71239626  0.59691772  0.52901789
   0.68054371  0.49231588  0.58381699
   0.63742620  0.59673552  0.29606441
   0.68095009  0.49318076  0.34452922
   0.71957243  0.49333336  0.46404235
   0.68190416  0.38561975  0.51752934
   0.45244275  0.49167866  0.66308985
   0.51505539  0.59607177  0.67253021
   0.57938415  0.49165443  0.65743995
   0.39341495  0.38365504  0.63304135
   0.45472512  0.31673315  0.54974796
   0.51872888  0.38149645  0.63980844
   0.58074429  0.31806863  0.55064580
   0.64059040  0.38737694  0.63203070
   0.41574802  0.38299423  0.32352145
   0.51740769  0.38732681  0.25555356
   0.61929734  0.38582549  0.32371945
   0.31952002  0.38464080  0.39843891
   0.41630091  0.31650450  0.43088609
   0.51827371  0.31802166  0.35645879
   0.61991764  0.31904777  0.43033586
   0.71541495  0.38924444  0.39978175
   0.51939665  0.25801777  0.46298946
   0.41721615  0.42191360  0.71155232
 
 position of ions in cartesian coordinates  (Angst):
   7.00196397 11.91924594  8.20679326
   9.02940802 13.26492423  7.54771209
   8.23855455 13.25235174  9.94033002
  10.25863754 14.46790298  9.28859821
  10.29354328 12.17124045  9.28701848
  11.54142885 13.30114717  7.55590243
  12.31591660 13.30626176  9.93983467
   6.32999744 11.85602522 10.55344946
   6.99191458  9.77706411 11.67061610
   8.29826444 10.84643236  9.93334355
   8.25724570 11.93007796 12.08512607
  10.27472512 13.26932761 11.42492011
  10.29323030 10.85784502 11.40629175
  12.30830557 10.89334450  9.93953141
  12.32247393 11.97428620 12.08869614
   7.85340086 11.87535119  5.91080077
   7.03503833  9.77948927  6.88195272
   9.07639302  9.81681537  5.40412260
   9.07090527 10.85590234  7.57785948
  10.30333596 11.96005216  5.81842100
  10.33368619  8.76804619  7.17487191
  11.58387456  9.84542114  5.41142182
  11.55058746 10.89014249  7.58410192
   6.25086382  9.75803429  9.28292827
   7.05030589  7.62205286 10.34146751
   8.32685573  8.73415724  8.63845228
   9.09667056  8.74912364 10.99749859
  10.31749419  9.81409123  9.29134427
  10.34853481  7.45655063  9.27983148
  12.33853787  8.78881325  8.63261898
  11.56694344  8.76628652 10.99501784
  13.59232703 12.00062279  8.22021498
  14.24792516 11.93835445 10.58035788
  13.61087413  9.84631764 11.67633987
  12.74852392 11.93471033  5.92128822
  13.61900172  9.86361523  6.89058446
  14.39144854  9.86666723  9.28084705
  13.63808312  7.71239500 10.35058685
   9.04885507  9.83357329 13.26179706
  10.30110785 11.92143536 13.45060413
  11.58768300  9.83308852 13.14879895
   7.86829894  7.67310085 12.66082709
   9.09450249  6.33466307 10.99495914
  10.37457755  7.62992909 12.79616874
  11.61488572  6.36137253 11.01291595
  12.81180801  7.74753877 12.64061399
   8.31496040  7.65988465  6.47042891
  10.34815373  7.74653625  5.11107115
  12.38594688  7.71650979  6.47438897
   6.39040036  7.69281594  7.96877828
   8.32601819  6.33008997  8.61772179
  10.36547410  6.36043326  7.12917578
  12.39835288  6.38095547  8.60671721
  14.30829907  7.78488881  7.99563492
  10.38793292  5.16035537  9.25978919
   8.34432295  8.43827195 14.23104634
 


--------------------------------------------------------------------------------------------------------


 k-point  1 :   0.0000 0.0000 0.0000  plane waves:  145165

 maximum and minimum number of plane-waves per node :    145165   145165

 maximum number of plane-waves:    145165
 maximum index in each direction: 
   IXMAX=   32   IYMAX=   32   IZMAX=   32
   IXMIN=  -32   IYMIN=  -32   IZMIN=  -32


 serial   3D FFT for wavefunctions
 parallel 3D FFT for charge:
    minimum data exchange during FFTs selected (reduces bandwidth)


 total amount of memory used by VASP MPI-rank0   308125. kBytes
=======================================================================

   base      :      30000. kBytes
   nonl-proj :     171888. kBytes
   fftplans  :      15318. kBytes
   grid      :      57304. kBytes
   one-center:        870. kBytes
   wavefun   :      32745. kBytes
 
     INWAV:  cpu time    0.0000: real time    0.0000
 Broyden mixing: mesh for mixing (old mesh)
   NGX = 65   NGY = 65   NGZ = 65
  (NGX  =196   NGY  =196   NGZ  =196)
  gives a total of 274625 points

 initial charge density was supplied:
 charge density of overlapping atoms calculated
 number of electron     556.0000000 magnetization 
 keeping initial charge density in first step


--------------------------------------------------------------------------------------------------------


 Maximum index for augmentation-charges          288 (set IRDMAX)


--------------------------------------------------------------------------------------------------------


 First call to EWALD:  gamma=   0.089
 Maximum number of real-space cells 3x 3x 3
 Maximum number of reciprocal cells 3x 3x 3

    FEWALD:  cpu time    0.0028: real time    0.0036


--------------------------------------- Iteration      1(   1)  ---------------------------------------


    POTLOK:  cpu time    0.2731: real time    0.2768
    SETDIJ:  cpu time    0.0085: real time    0.0085
     EDDAV:  cpu time   52.6719: real time   52.8743
       DOS:  cpu time    0.0004: real time    0.0005
    --------------------------------------------
      LOOP:  cpu time   52.9540: real time   53.1602

 eigenvalue-minimisations  :   672
 total energy-change (2. order) : 0.2856679E+04  (-0.1622157E+05)
 number of electron     556.0000000 magnetization 
 augmentation part      556.0000000 magnetization 

 Free energy of the ion-electron system (eV)
  ---------------------------------------------------
  alpha Z        PSCENC =       387.12086559
  Ewald energy   TEWEN  =    181133.78310737
  -Hartree energ DENC   =   -235899.55298791
  -exchange      EXHF   =         0.00000000
  -V(xc)+E(xc)   XCENC  =      1718.01757270
  PAW double counting   =     47983.58147063   -51655.55533713
  entropy T*S    EENTRO =        -0.06665644
  eigenvalues    EBANDS =      -371.55199701
  atomic energy  EATOM  =     59560.90262231
  Solvation  Ediel_sol  =         0.00000000
  ---------------------------------------------------
  free energy    TOTEN  =      2856.67866012 eV

  energy without entropy =     2856.74531656  energy(sigma->0) =     2856.71198834


--------------------------------------------------------------------------------------------------------




--------------------------------------- Iteration      1(   2)  ---------------------------------------


     EDDAV:  cpu time   54.1651: real time   54.3779
       DOS:  cpu time    0.0003: real time    0.0003
    --------------------------------------------
      LOOP:  cpu time   54.1653: real time   54.3782

 eigenvalue-minimisations  :   696
 total energy-change (2. order) :-0.2968758E+04  (-0.2902050E+04)
 number of electron     556.0000000 magnetization 
 augmentation part      556.0000000 magnetization 

 Free energy of the ion-electron system (eV)
  ---------------------------------------------------
  alpha Z        PSCENC =       387.12086559
  Ewald energy   TEWEN  =    181133.78310737
  -Hartree energ DENC   =   -235899.55298791
  -exchange      EXHF   =         0.00000000
  -V(xc)+E(xc)   XCENC  =      1718.01757270
  PAW double counting   =     47983.58147063   -51655.55533713
  entropy T*S    EENTRO =        -0.13669801
  eigenvalues    EBANDS =     -3340.23959011
  atomic energy  EATOM  =     59560.90262231
  Solvation  Ediel_sol  =         0.00000000
  ---------------------------------------------------
  free energy    TOTEN  =      -112.07897456 eV

  energy without entropy =     -111.94227655  energy(sigma->0) =     -112.01062555


--------------------------------------------------------------------------------------------------------




--------------------------------------- Iteration      1(   3)  ---------------------------------------


     EDDAV:  cpu time   60.0303: real time   60.2477
       DOS:  cpu time    0.0002: real time    0.0002
    --------------------------------------------
      LOOP:  cpu time   60.0306: real time   60.2479

 eigenvalue-minimisations  :   792
 total energy-change (2. order) :-0.1830389E+03  (-0.1701998E+03)
 number of electron     556.0000000 magnetization 
 augmentation part      556.0000000 magnetization 

 Free energy of the ion-electron system (eV)
  ---------------------------------------------------
  alpha Z        PSCENC =       387.12086559
  Ewald energy   TEWEN  =    181133.78310737
  -Hartree energ DENC   =   -235899.55298791
  -exchange      EXHF   =         0.00000000
  -V(xc)+E(xc)   XCENC  =      1718.01757270
  PAW double counting   =     47983.58147063   -51655.55533713
  entropy T*S    EENTRO =        -0.31715015
  eigenvalues    EBANDS =     -3523.09804139
  atomic energy  EATOM  =     59560.90262231
  Solvation  Ediel_sol  =         0.00000000
  ---------------------------------------------------
  free energy    TOTEN  =      -295.11787798 eV

  energy without entropy =     -294.80072783  energy(sigma->0) =     -294.95930290


--------------------------------------------------------------------------------------------------------




--------------------------------------- Iteration      1(   4)  ---------------------------------------


     EDDAV:  cpu time   55.5461: real time   55.7965
       DOS:  cpu time    0.0003: real time    0.0003
    --------------------------------------------
      LOOP:  cpu time   55.5464: real time   55.7968

 eigenvalue-minimisations  :   720
 total energy-change (2. order) :-0.7744816E+01  (-0.7395201E+01)
 number of electron     556.0000000 magnetization 
 augmentation part      556.0000000 magnetization 

 Free energy of the ion-electron system (eV)
  ---------------------------------------------------
  alpha Z        PSCENC =       387.12086559
  Ewald energy   TEWEN  =    181133.78310737
  -Hartree energ DENC   =   -235899.55298791
  -exchange      EXHF   =         0.00000000
  -V(xc)+E(xc)   XCENC  =      1718.01757270
  PAW double counting   =     47983.58147063   -51655.55533713
  entropy T*S    EENTRO =        -0.31879561
  eigenvalues    EBANDS =     -3530.84121189
  atomic energy  EATOM  =     59560.90262231
  Solvation  Ediel_sol  =         0.00000000
  ---------------------------------------------------
  free energy    TOTEN  =      -302.86269394 eV

  energy without entropy =     -302.54389833  energy(sigma->0) =     -302.70329613


--------------------------------------------------------------------------------------------------------




--------------------------------------- Iteration      1(   5)  ---------------------------------------


     EDDAV:  cpu time   58.5313: real time   58.7813
       DOS:  cpu time    0.0002: real time    0.0002
    CHARGE:  cpu time    0.4639: real time    0.4650
    MIXING:  cpu time    0.0098: real time    0.0099
    --------------------------------------------
      LOOP:  cpu time   59.0052: real time   59.2564

 eigenvalue-minimisations  :   768
 total energy-change (2. order) :-0.2450479E+00  (-0.2427982E+00)
 number of electron     556.0000120 magnetization 
 augmentation part      316.6240881 magnetization 

 Broyden mixing:
  rms(total) = 0.53717E+01    rms(broyden)= 0.53707E+01
  rms(prec ) = 0.59979E+01
  weight for this iteration     100.00

 Free energy of the ion-electron system (eV)
  ---------------------------------------------------
  alpha Z        PSCENC =       387.12086559
  Ewald energy   TEWEN  =    181133.78310737
  -Hartree energ DENC   =   -235899.55298791
  -exchange      EXHF   =         0.00000000
  -V(xc)+E(xc)   XCENC  =      1718.01757270
  PAW double counting   =     47983.58147063   -51655.55533713
  entropy T*S    EENTRO =        -0.31863952
  eigenvalues    EBANDS =     -3531.08641587
  atomic energy  EATOM  =     59560.90262231
  Solvation  Ediel_sol  =         0.00000000
  ---------------------------------------------------
  free energy    TOTEN  =      -303.10774182 eV

  energy without entropy =     -302.78910231  energy(sigma->0) =     -302.94842206


--------------------------------------------------------------------------------------------------------




--------------------------------------- Iteration      1(   6)  ---------------------------------------


    POTLOK:  cpu time    0.2414: real time    0.2461
    SETDIJ:  cpu time    0.0080: real time    0.0080
    EDDIAG:  cpu time    1.4585: real time    1.4624
  RMM-DIIS:  cpu time   42.3453: real time   42.5599
    ORTHCH:  cpu time    0.3971: real time    0.3981
       DOS:  cpu time    0.0002: real time    0.0002
    CHARGE:  cpu time    0.4378: real time    0.4391
    MIXING:  cpu time    0.0105: real time    0.0105
    --------------------------------------------
      LOOP:  cpu time   44.8989: real time   45.1245

 eigenvalue-minimisations  :   674
 total energy-change (2. order) :-0.1540666E+03  (-0.7762918E+02)
 number of electron     556.0000143 magnetization 
 augmentation part      343.6742552 magnetization 

 Broyden mixing:
  rms(total) = 0.13570E+02    rms(broyden)= 0.13570E+02
  rms(prec ) = 0.16100E+02
  weight for this iteration     100.00

 eigenvalues of (default mixing * dielectric matrix)
  average eigenvalue GAMMA=   0.2092
  0.2092

 Free energy of the ion-electron system (eV)
  ---------------------------------------------------
  alpha Z        PSCENC =       387.12086559
  Ewald energy   TEWEN  =    181133.78310737
  -Hartree energ DENC   =   -235280.87955371
  -exchange      EXHF   =         0.00000000
  -V(xc)+E(xc)   XCENC  =      1661.69233627
  PAW double counting   =     47734.42935817   -51221.66214104
  entropy T*S    EENTRO =        -0.10734657
  eigenvalues    EBANDS =     -4432.45362607
  atomic energy  EATOM  =     59560.90262231
  Solvation  Ediel_sol  =         0.00000000
  ---------------------------------------------------
  free energy    TOTEN  =      -457.17437768 eV

  energy without entropy =     -457.06703111  energy(sigma->0) =     -457.12070439


--------------------------------------------------------------------------------------------------------




--------------------------------------- Iteration      1(   7)  ---------------------------------------


    POTLOK:  cpu time    0.2411: real time    0.2442
    SETDIJ:  cpu time    0.0064: real time    0.0064
    EDDIAG:  cpu time    1.4626: real time    1.4674
  RMM-DIIS:  cpu time   42.2952: real time   42.4202
    ORTHCH:  cpu time    0.3966: real time    0.3976
       DOS:  cpu time    0.0003: real time    0.0003
    CHARGE:  cpu time    0.4600: real time    0.4613
    MIXING:  cpu time    0.0086: real time    0.0087
    --------------------------------------------
      LOOP:  cpu time   44.8708: real time   45.0060

 eigenvalue-minimisations  :   673
 total energy-change (2. order) : 0.1141051E+03  (-0.4004508E+02)
 number of electron     556.0000031 magnetization 
 augmentation part      351.9218844 magnetization 

 Broyden mixing:
  rms(total) = 0.74226E+01    rms(broyden)= 0.74208E+01
  rms(prec ) = 0.85898E+01
  weight for this iteration     100.00

 eigenvalues of (default mixing * dielectric matrix)
  average eigenvalue GAMMA=   0.2836
  0.3972  0.1700

 Free energy of the ion-electron system (eV)
  ---------------------------------------------------
  alpha Z        PSCENC =       387.12086559
  Ewald energy   TEWEN  =    181133.78310737
  -Hartree energ DENC   =   -235069.10954211
  -exchange      EXHF   =         0.00000000
  -V(xc)+E(xc)   XCENC  =      1665.84360996
  PAW double counting   =     47928.98856773   -51461.03582476
  entropy T*S    EENTRO =        -0.22296422
  eigenvalues    EBANDS =     -4489.33973688
  atomic energy  EATOM  =     59560.90262231
  Solvation  Ediel_sol  =         0.00000000
  ---------------------------------------------------
  free energy    TOTEN  =      -343.06929501 eV

  energy without entropy =     -342.84633079  energy(sigma->0) =     -342.95781290


--------------------------------------------------------------------------------------------------------




--------------------------------------- Iteration      1(   8)  ---------------------------------------


    POTLOK:  cpu time    0.2521: real time    0.2923
    SETDIJ:  cpu time    0.0063: real time    0.0063
    EDDIAG:  cpu time    1.4562: real time    1.4601
  RMM-DIIS:  cpu time   42.3205: real time   42.4431
    ORTHCH:  cpu time    0.4217: real time    0.4233
       DOS:  cpu time    0.0003: real time    0.0003
    CHARGE:  cpu time    0.4521: real time    0.4534
    MIXING:  cpu time    0.0091: real time    0.0091
    --------------------------------------------
      LOOP:  cpu time   44.9183: real time   45.0881

 eigenvalue-minimisations  :   674
 total energy-change (2. order) : 0.2909185E+02  (-0.1892810E+02)
 number of electron     556.0000100 magnetization 
 augmentation part      346.2193452 magnetization 

 Broyden mixing:
  rms(total) = 0.88096E+01    rms(broyden)= 0.88085E+01
  rms(prec ) = 0.11054E+02
  weight for this iteration     100.00

 eigenvalues of (default mixing * dielectric matrix)
  average eigenvalue GAMMA=   0.2663
  0.4992  0.1498  0.1498

 Free energy of the ion-electron system (eV)
  ---------------------------------------------------
  alpha Z        PSCENC =       387.12086559
  Ewald energy   TEWEN  =    181133.78310737
  -Hartree energ DENC   =   -235346.38433972
  -exchange      EXHF   =         0.00000000
  -V(xc)+E(xc)   XCENC  =      1672.81512421
  PAW double counting   =     48450.85962372   -52065.74442538
  entropy T*S    EENTRO =        -0.11701301
  eigenvalues    EBANDS =     -4107.21301159
  atomic energy  EATOM  =     59560.90262231
  Solvation  Ediel_sol  =         0.00000000
  ---------------------------------------------------
  free energy    TOTEN  =      -313.97744649 eV

  energy without entropy =     -313.86043348  energy(sigma->0) =     -313.91893998


--------------------------------------------------------------------------------------------------------




--------------------------------------- Iteration      1(   9)  ---------------------------------------


    POTLOK:  cpu time    0.2370: real time    0.2406
    SETDIJ:  cpu time    0.0064: real time    0.0064
    EDDIAG:  cpu time    1.4700: real time    1.4743
  RMM-DIIS:  cpu time   42.2251: real time   42.4351
    ORTHCH:  cpu time    0.4081: real time    0.4090
       DOS:  cpu time    0.0003: real time    0.0003
    CHARGE:  cpu time    0.4590: real time    0.4604
    MIXING:  cpu time    0.0096: real time    0.0096
    --------------------------------------------
      LOOP:  cpu time   44.8154: real time   45.0357

 eigenvalue-minimisations  :   674
 total energy-change (2. order) : 0.5940907E+01  (-0.5711048E+01)
 number of electron     556.0000292 magnetization 
 augmentation part      343.7243704 magnetization 

 Broyden mixing:
  rms(total) = 0.10305E+02    rms(broyden)= 0.10304E+02
  rms(prec ) = 0.12170E+02
  weight for this iteration     100.00

 eigenvalues of (default mixing * dielectric matrix)
  average eigenvalue GAMMA=   0.2606
  0.6508  0.1498  0.1498  0.0920

 Free energy of the ion-electron system (eV)
  ---------------------------------------------------
  alpha Z        PSCENC =       387.12086559
  Ewald energy   TEWEN  =    181133.78310737
  -Hartree energ DENC   =   -235473.42144446
  -exchange      EXHF   =         0.00000000
  -V(xc)+E(xc)   XCENC  =      1674.99685776
  PAW double counting   =     48686.18309680   -52335.40082549
  entropy T*S    EENTRO =        -0.08045703
  eigenvalues    EBANDS =     -3942.12036276
  atomic energy  EATOM  =     59560.90262231
  Solvation  Ediel_sol  =         0.00000000
  ---------------------------------------------------
  free energy    TOTEN  =      -308.03653989 eV

  energy without entropy =     -307.95608287  energy(sigma->0) =     -307.99631138


--------------------------------------------------------------------------------------------------------




--------------------------------------- Iteration      1(  10)  ---------------------------------------


    POTLOK:  cpu time    0.2377: real time    0.2418
    SETDIJ:  cpu time    0.0063: real time    0.0063
    EDDIAG:  cpu time    1.4656: real time    1.4704
  RMM-DIIS:  cpu time   42.2893: real time   42.4424
    ORTHCH:  cpu time    0.4096: real time    0.4111
       DOS:  cpu time    0.0004: real time    0.0004
    CHARGE:  cpu time    0.4545: real time    0.4558
    MIXING:  cpu time    0.0105: real time    0.0105
    --------------------------------------------
      LOOP:  cpu time   44.8738: real time   45.0386

 eigenvalue-minimisations  :   674
 total energy-change (2. order) : 0.1675789E+02  (-0.6028325E+01)
 number of electron     556.0000132 magnetization 
 augmentation part      341.7824308 magnetization 

 Broyden mixing:
  rms(total) = 0.81554E+01    rms(broyden)= 0.81545E+01
  rms(prec ) = 0.96618E+01
  weight for this iteration     100.00

 eigenvalues of (default mixing * dielectric matrix)
  average eigenvalue GAMMA=   0.2337
  0.6919  0.1484  0.1484  0.1127  0.0669

 Free energy of the ion-electron system (eV)
  ---------------------------------------------------
  alpha Z        PSCENC =       387.12086559
  Ewald energy   TEWEN  =    181133.78310737
  -Hartree energ DENC   =   -235605.17261702
  -exchange      EXHF   =         0.00000000
  -V(xc)+E(xc)   XCENC  =      1677.31660721
  PAW double counting   =     48952.01467905   -52640.14145591
  entropy T*S    EENTRO =        -0.13751500
  eigenvalues    EBANDS =     -3756.96494047
  atomic energy  EATOM  =     59560.90262231
  Solvation  Ediel_sol  =         0.00000000
  ---------------------------------------------------
  free energy    TOTEN  =      -291.27864686 eV

  energy without entropy =     -291.14113187  energy(sigma->0) =     -291.20988936


--------------------------------------------------------------------------------------------------------




--------------------------------------- Iteration      1(  11)  ---------------------------------------


    POTLOK:  cpu time    0.2375: real time    0.2407
    SETDIJ:  cpu time    0.0064: real time    0.0064
    EDDIAG:  cpu time    1.4678: real time    1.4726
  RMM-DIIS:  cpu time   42.3115: real time   42.4284
    ORTHCH:  cpu time    0.4123: real time    0.4132
       DOS:  cpu time    0.0003: real time    0.0003
    CHARGE:  cpu time    0.4577: real time    0.4590
    MIXING:  cpu time    0.0107: real time    0.0107
    --------------------------------------------
      LOOP:  cpu time   44.9042: real time   45.0314

 eigenvalue-minimisations  :   675
 total energy-change (2. order) : 0.2024487E+02  (-0.2187296E+01)
 number of electron     556.0000124 magnetization 
 augmentation part      341.3533423 magnetization 

 Broyden mixing:
  rms(total) = 0.44867E+01    rms(broyden)= 0.44852E+01
  rms(prec ) = 0.53280E+01
  weight for this iteration     100.00

 eigenvalues of (default mixing * dielectric matrix)
  average eigenvalue GAMMA=   0.2101
  0.6962  0.1619  0.1619  0.0912  0.0912  0.0581

 Free energy of the ion-electron system (eV)
  ---------------------------------------------------
  alpha Z        PSCENC =       387.12086559
  Ewald energy   TEWEN  =    181133.78310737
  -Hartree energ DENC   =   -235648.10128495
  -exchange      EXHF   =         0.00000000
  -V(xc)+E(xc)   XCENC  =      1677.84183026
  PAW double counting   =     49049.88148876   -52750.28070402
  entropy T*S    EENTRO =        -0.22925359
  eigenvalues    EBANDS =     -3681.95245348
  atomic energy  EATOM  =     59560.90262231
  Solvation  Ediel_sol  =         0.00000000
  ---------------------------------------------------
  free energy    TOTEN  =      -271.03378174 eV

  energy without entropy =     -270.80452815  energy(sigma->0) =     -270.91915494


--------------------------------------------------------------------------------------------------------




--------------------------------------- Iteration      1(  12)  ---------------------------------------


    POTLOK:  cpu time    0.2381: real time    0.2431
    SETDIJ:  cpu time    0.0063: real time    0.0064
    EDDIAG:  cpu time    1.4699: real time    1.5082
  RMM-DIIS:  cpu time   42.3898: real time   42.5106
    ORTHCH:  cpu time    0.4077: real time    0.4097
       DOS:  cpu time    0.0004: real time    0.0004
    CHARGE:  cpu time    0.4524: real time    0.4537
    MIXING:  cpu time    0.0110: real time    0.0110
    --------------------------------------------
      LOOP:  cpu time   44.9755: real time   45.1430

 eigenvalue-minimisations  :   676
 total energy-change (2. order) : 0.4336032E+01  (-0.5110485E+00)
 number of electron     556.0000114 magnetization 
 augmentation part      341.5124782 magnetization 

 Broyden mixing:
  rms(total) = 0.46323E+01    rms(broyden)= 0.46310E+01
  rms(prec ) = 0.56439E+01
  weight for this iteration     100.00

 eigenvalues of (default mixing * dielectric matrix)
  average eigenvalue GAMMA=   0.2002
  0.7018  0.2374  0.1540  0.0985  0.0985  0.0557  0.0557

 Free energy of the ion-electron system (eV)
  ---------------------------------------------------
  alpha Z        PSCENC =       387.12086559
  Ewald energy   TEWEN  =    181133.78310737
  -Hartree energ DENC   =   -235664.16053708
  -exchange      EXHF   =         0.00000000
  -V(xc)+E(xc)   XCENC  =      1677.96016483
  PAW double counting   =     49109.37484807   -52814.31246947
  entropy T*S    EENTRO =        -0.25744314
  eigenvalues    EBANDS =     -3657.10890795
  atomic energy  EATOM  =     59560.90262231
  Solvation  Ediel_sol  =         0.00000000
  ---------------------------------------------------
  free energy    TOTEN  =      -266.69774947 eV

  energy without entropy =     -266.44030633  energy(sigma->0) =     -266.56902790


--------------------------------------------------------------------------------------------------------




--------------------------------------- Iteration      1(  13)  ---------------------------------------


    POTLOK:  cpu time    0.2377: real time    0.2411
    SETDIJ:  cpu time    0.0063: real time    0.0064
    EDDIAG:  cpu time    1.4759: real time    1.4809
  RMM-DIIS:  cpu time   42.2095: real time   42.4179
    ORTHCH:  cpu time    0.4081: real time    0.4093
       DOS:  cpu time    0.0005: real time    0.0005
    CHARGE:  cpu time    0.4602: real time    0.4614
    MIXING:  cpu time    0.0115: real time    0.0115
    --------------------------------------------
      LOOP:  cpu time   44.8097: real time   45.0290

 eigenvalue-minimisations  :   675
 total energy-change (2. order) : 0.1086182E+01  (-0.3790375E+00)
 number of electron     556.0000097 magnetization 
 augmentation part      341.3243538 magnetization 

 Broyden mixing:
  rms(total) = 0.48252E+01    rms(broyden)= 0.48241E+01
  rms(prec ) = 0.59062E+01
  weight for this iteration     100.00

 eigenvalues of (default mixing * dielectric matrix)
  average eigenvalue GAMMA=   0.1982
  0.7107  0.3283  0.1487  0.1132  0.1132  0.0763  0.0629  0.0323

 Free energy of the ion-electron system (eV)
  ---------------------------------------------------
  alpha Z        PSCENC =       387.12086559
  Ewald energy   TEWEN  =    181133.78310737
  -Hartree energ DENC   =   -235685.16008596
  -exchange      EXHF   =         0.00000000
  -V(xc)+E(xc)   XCENC  =      1678.05923593
  PAW double counting   =     49185.54041228   -52895.72453619
  entropy T*S    EENTRO =        -0.21699006
  eigenvalues    EBANDS =     -3629.91619867
  atomic energy  EATOM  =     59560.90262231
  Solvation  Ediel_sol  =         0.00000000
  ---------------------------------------------------
  free energy    TOTEN  =      -265.61156741 eV

  energy without entropy =     -265.39457735  energy(sigma->0) =     -265.50307238


--------------------------------------------------------------------------------------------------------




--------------------------------------- Iteration      1(  14)  ---------------------------------------


    POTLOK:  cpu time    0.2373: real time    0.2416
    SETDIJ:  cpu time    0.0062: real time    0.0062
    EDDIAG:  cpu time    1.4677: real time    1.4727
  RMM-DIIS:  cpu time   42.2494: real time   42.4715
    ORTHCH:  cpu time    0.4105: real time    0.4122
       DOS:  cpu time    0.0003: real time    0.0003
    CHARGE:  cpu time    0.4569: real time    0.4580
    MIXING:  cpu time    0.0120: real time    0.0120
    --------------------------------------------
      LOOP:  cpu time   44.8404: real time   45.0747

 eigenvalue-minimisations  :   676
 total energy-change (2. order) : 0.7209783E+00  (-0.4080889E+00)
 number of electron     556.0000110 magnetization 
 augmentation part      340.9377059 magnetization 

 Broyden mixing:
  rms(total) = 0.48945E+01    rms(broyden)= 0.48934E+01
  rms(prec ) = 0.57783E+01
  weight for this iteration     100.00

 eigenvalues of (default mixing * dielectric matrix)
  average eigenvalue GAMMA=   0.2047
  0.7378  0.4626  0.1316  0.1316  0.1432  0.0947  0.0660  0.0393  0.0358

 Free energy of the ion-electron system (eV)
  ---------------------------------------------------
  alpha Z        PSCENC =       387.12086559
  Ewald energy   TEWEN  =    181133.78310737
  -Hartree energ DENC   =   -235715.57580130
  -exchange      EXHF   =         0.00000000
  -V(xc)+E(xc)   XCENC  =      1678.20016292
  PAW double counting   =     49285.25911780   -53002.20864958
  entropy T*S    EENTRO =        -0.24055950
  eigenvalues    EBANDS =     -3592.13145478
  atomic energy  EATOM  =     59560.90262231
  Solvation  Ediel_sol  =         0.00000000
  ---------------------------------------------------
  free energy    TOTEN  =      -264.89058916 eV

  energy without entropy =     -264.65002966  energy(sigma->0) =     -264.77030941


--------------------------------------------------------------------------------------------------------




--------------------------------------- Iteration      1(  15)  ---------------------------------------


    POTLOK:  cpu time    0.2383: real time    0.2418
    SETDIJ:  cpu time    0.0064: real time    0.0064
    EDDIAG:  cpu time    1.4705: real time    1.4748
  RMM-DIIS:  cpu time   42.2733: real time   42.4011
    ORTHCH:  cpu time    0.4088: real time    0.4106
       DOS:  cpu time    0.0003: real time    0.0003
    CHARGE:  cpu time    0.4557: real time    0.4569
    MIXING:  cpu time    0.0134: real time    0.0134
    --------------------------------------------
      LOOP:  cpu time   44.8668: real time   45.0053

 eigenvalue-minimisations  :   675
 total energy-change (2. order) :-0.2605149E+00  (-0.4786230E+00)
 number of electron     556.0000082 magnetization 
 augmentation part      340.4303078 magnetization 

 Broyden mixing:
  rms(total) = 0.53693E+01    rms(broyden)= 0.53679E+01
  rms(prec ) = 0.65622E+01
  weight for this iteration     100.00

 eigenvalues of (default mixing * dielectric matrix)
  average eigenvalue GAMMA=   0.2038
  0.7748  0.5457  0.1411  0.1411  0.1267  0.1267  0.0619  0.0447  0.0447  0.0307

 Free energy of the ion-electron system (eV)
  ---------------------------------------------------
  alpha Z        PSCENC =       387.12086559
  Ewald energy   TEWEN  =    181133.78310737
  -Hartree energ DENC   =   -235759.99552552
  -exchange      EXHF   =         0.00000000
  -V(xc)+E(xc)   XCENC  =      1678.40795279
  PAW double counting   =     49432.68587676   -53159.23723423
  entropy T*S    EENTRO =        -0.19189556
  eigenvalues    EBANDS =     -3538.62687355
  atomic energy  EATOM  =     59560.90262231
  Solvation  Ediel_sol  =         0.00000000
  ---------------------------------------------------
  free energy    TOTEN  =      -265.15110403 eV

  energy without entropy =     -264.95920847  energy(sigma->0) =     -265.05515625


--------------------------------------------------------------------------------------------------------




--------------------------------------- Iteration      1(  16)  ---------------------------------------


    POTLOK:  cpu time    0.2393: real time    0.2437
    SETDIJ:  cpu time    0.0064: real time    0.0064
    EDDIAG:  cpu time    1.4538: real time    1.5030
  RMM-DIIS:  cpu time   42.3104: real time   42.4375
    ORTHCH:  cpu time    0.4094: real time    0.4106
       DOS:  cpu time    0.0003: real time    0.0003
    CHARGE:  cpu time    0.4589: real time    0.4600
    MIXING:  cpu time    0.0134: real time    0.0134
    --------------------------------------------
      LOOP:  cpu time   44.8919: real time   45.0749

 eigenvalue-minimisations  :   675
 total energy-change (2. order) : 0.2312250E+01  (-0.3125778E+00)
 number of electron     556.0000167 magnetization 
 augmentation part      339.9516498 magnetization 

 Broyden mixing:
  rms(total) = 0.41767E+01    rms(broyden)= 0.41755E+01
  rms(prec ) = 0.51405E+01
  weight for this iteration     100.00

 eigenvalues of (default mixing * dielectric matrix)
  average eigenvalue GAMMA=   0.1999
  0.8212  0.5785  0.1457  0.1457  0.1382  0.1382  0.0573  0.0573  0.0487  0.0369
  0.0316

 Free energy of the ion-electron system (eV)
  ---------------------------------------------------
  alpha Z        PSCENC =       387.12086559
  Ewald energy   TEWEN  =    181133.78310737
  -Hartree energ DENC   =   -235791.17755040
  -exchange      EXHF   =         0.00000000
  -V(xc)+E(xc)   XCENC  =      1678.55530505
  PAW double counting   =     49549.16412029   -53282.64943798
  entropy T*S    EENTRO =        -0.20281986
  eigenvalues    EBANDS =     -3498.33506628
  atomic energy  EATOM  =     59560.90262231
  Solvation  Ediel_sol  =         0.00000000
  ---------------------------------------------------
  free energy    TOTEN  =      -262.83885389 eV

  energy without entropy =     -262.63603404  energy(sigma->0) =     -262.73744396


--------------------------------------------------------------------------------------------------------




--------------------------------------- Iteration      1(  17)  ---------------------------------------


    POTLOK:  cpu time    0.2380: real time    0.2410
    SETDIJ:  cpu time    0.0063: real time    0.0063
    EDDIAG:  cpu time    1.4715: real time    1.4833
  RMM-DIIS:  cpu time   42.2852: real time   42.4360
    ORTHCH:  cpu time    0.4126: real time    0.4144
       DOS:  cpu time    0.0003: real time    0.0003
    CHARGE:  cpu time    0.4535: real time    0.4547
    MIXING:  cpu time    0.0138: real time    0.0139
    --------------------------------------------
      LOOP:  cpu time   44.8812: real time   45.0499

 eigenvalue-minimisations  :   675
 total energy-change (2. order) : 0.2417311E+01  (-0.2359138E+00)
 number of electron     556.0000113 magnetization 
 augmentation part      339.7525099 magnetization 

 Broyden mixing:
  rms(total) = 0.31694E+01    rms(broyden)= 0.31682E+01
  rms(prec ) = 0.38253E+01
  weight for this iteration     100.00

 eigenvalues of (default mixing * dielectric matrix)
  average eigenvalue GAMMA=   0.2008
  0.8861  0.5756  0.1981  0.1981  0.1214  0.1214  0.0745  0.0745  0.0494  0.0494
  0.0307  0.0307

 Free energy of the ion-electron system (eV)
  ---------------------------------------------------
  alpha Z        PSCENC =       387.12086559
  Ewald energy   TEWEN  =    181133.78310737
  -Hartree energ DENC   =   -235810.34365911
  -exchange      EXHF   =         0.00000000
  -V(xc)+E(xc)   XCENC  =      1678.59854810
  PAW double counting   =     49633.21245682   -53370.99757123
  entropy T*S    EENTRO =        -0.25647231
  eigenvalues    EBANDS =     -3472.44144089
  atomic energy  EATOM  =     59560.90262231
  Solvation  Ediel_sol  =         0.00000000
  ---------------------------------------------------
  free energy    TOTEN  =      -260.42154333 eV

  energy without entropy =     -260.16507103  energy(sigma->0) =     -260.29330718


--------------------------------------------------------------------------------------------------------




--------------------------------------- Iteration      1(  18)  ---------------------------------------


    POTLOK:  cpu time    0.2383: real time    0.2421
    SETDIJ:  cpu time    0.0063: real time    0.0063
    EDDIAG:  cpu time    1.4699: real time    1.4749
  RMM-DIIS:  cpu time   42.3537: real time   42.4750
    ORTHCH:  cpu time    0.4116: real time    0.4129
       DOS:  cpu time    0.0003: real time    0.0003
    CHARGE:  cpu time    0.4537: real time    0.4548
    MIXING:  cpu time    0.0143: real time    0.0143
    --------------------------------------------
      LOOP:  cpu time   44.9483: real time   45.0806

 eigenvalue-minimisations  :   676
 total energy-change (2. order) : 0.6015184E+00  (-0.2011907E+00)
 number of electron     556.0000119 magnetization 
 augmentation part      339.7649195 magnetization 

 Broyden mixing:
  rms(total) = 0.34279E+01    rms(broyden)= 0.34267E+01
  rms(prec ) = 0.42259E+01
  weight for this iteration     100.00

 eigenvalues of (default mixing * dielectric matrix)
  average eigenvalue GAMMA=   0.1980
  0.9240  0.5181  0.3278  0.1888  0.1202  0.1202  0.0858  0.0858  0.0501  0.0501
  0.0433  0.0321  0.0274

 Free energy of the ion-electron system (eV)
  ---------------------------------------------------
  alpha Z        PSCENC =       387.12086559
  Ewald energy   TEWEN  =    181133.78310737
  -Hartree energ DENC   =   -235827.32903762
  -exchange      EXHF   =         0.00000000
  -V(xc)+E(xc)   XCENC  =      1678.64240860
  PAW double counting   =     49720.24928414   -53461.85179759
  entropy T*S    EENTRO =        -0.26072064
  eigenvalues    EBANDS =     -3451.07675712
  atomic energy  EATOM  =     59560.90262231
  Solvation  Ediel_sol  =         0.00000000
  ---------------------------------------------------
  free energy    TOTEN  =      -259.82002495 eV

  energy without entropy =     -259.55930430  energy(sigma->0) =     -259.68966463


--------------------------------------------------------------------------------------------------------




--------------------------------------- Iteration      1(  19)  ---------------------------------------


    POTLOK:  cpu time    0.2385: real time    0.2424
    SETDIJ:  cpu time    0.0063: real time    0.0064
    EDDIAG:  cpu time    1.4709: real time    1.4749
  RMM-DIIS:  cpu time   42.3525: real time   42.4729
    ORTHCH:  cpu time    0.4095: real time    0.4107
       DOS:  cpu time    0.0003: real time    0.0003
    CHARGE:  cpu time    0.4508: real time    0.4520
    MIXING:  cpu time    0.0150: real time    0.0150
    --------------------------------------------
      LOOP:  cpu time   44.9439: real time   45.0745

 eigenvalue-minimisations  :   677
 total energy-change (2. order) : 0.7085284E+00  (-0.1150011E+00)
 number of electron     556.0000138 magnetization 
 augmentation part      339.8075393 magnetization 

 Broyden mixing:
  rms(total) = 0.31202E+01    rms(broyden)= 0.31194E+01
  rms(prec ) = 0.36630E+01
  weight for this iteration     100.00

 eigenvalues of (default mixing * dielectric matrix)
  average eigenvalue GAMMA=   0.2122
  0.9892  0.5578  0.5578  0.1537  0.1260  0.1260  0.1042  0.1042  0.0555  0.0513
  0.0513  0.0339  0.0339  0.0267

 Free energy of the ion-electron system (eV)
  ---------------------------------------------------
  alpha Z        PSCENC =       387.12086559
  Ewald energy   TEWEN  =    181133.78310737
  -Hartree energ DENC   =   -235835.01839567
  -exchange      EXHF   =         0.00000000
  -V(xc)+E(xc)   XCENC  =      1678.59056491
  PAW double counting   =     49770.43534613   -53513.46209030
  entropy T*S    EENTRO =        -0.28745949
  eigenvalues    EBANDS =     -3441.17605738
  atomic energy  EATOM  =     59560.90262231
  Solvation  Ediel_sol  =         0.00000000
  ---------------------------------------------------
  free energy    TOTEN  =      -259.11149653 eV

  energy without entropy =     -258.82403705  energy(sigma->0) =     -258.96776679


--------------------------------------------------------------------------------------------------------




--------------------------------------- Iteration      1(  20)  ---------------------------------------


    POTLOK:  cpu time    0.2412: real time    0.2458
    SETDIJ:  cpu time    0.0064: real time    0.0064
    EDDIAG:  cpu time    1.4921: real time    1.5253
  RMM-DIIS:  cpu time   42.3238: real time   42.4400
    ORTHCH:  cpu time    0.4100: real time    0.4110
       DOS:  cpu time    0.0004: real time    0.0004
    CHARGE:  cpu time    0.4524: real time    0.4535
    MIXING:  cpu time    0.0161: real time    0.0162
    --------------------------------------------
      LOOP:  cpu time   44.9425: real time   45.0985

 eigenvalue-minimisations  :   675
 total energy-change (2. order) : 0.7529593E+00  (-0.1445881E+00)
 number of electron     556.0000164 magnetization 
 augmentation part      339.8218781 magnetization 

 Broyden mixing:
  rms(total) = 0.25641E+01    rms(broyden)= 0.25628E+01
  rms(prec ) = 0.30443E+01
  weight for this iteration     100.00

 eigenvalues of (default mixing * dielectric matrix)
  average eigenvalue GAMMA=   0.2113
  1.0293  0.6061  0.6061  0.1286  0.1286  0.1339  0.1339  0.0983  0.0576  0.0576
  0.0492  0.0492  0.0327  0.0327  0.0264

 Free energy of the ion-electron system (eV)
  ---------------------------------------------------
  alpha Z        PSCENC =       387.12086559
  Ewald energy   TEWEN  =    181133.78310737
  -Hartree energ DENC   =   -235845.17644688
  -exchange      EXHF   =         0.00000000
  -V(xc)+E(xc)   XCENC  =      1678.43601868
  PAW double counting   =     49845.10329076   -53589.85410996
  entropy T*S    EENTRO =        -0.35796933
  eigenvalues    EBANDS =     -3428.31591579
  atomic energy  EATOM  =     59560.90262231
  Solvation  Ediel_sol  =         0.00000000
  ---------------------------------------------------
  free energy    TOTEN  =      -258.35853724 eV

  energy without entropy =     -258.00056791  energy(sigma->0) =     -258.17955257


--------------------------------------------------------------------------------------------------------




--------------------------------------- Iteration      1(  21)  ---------------------------------------


    POTLOK:  cpu time    0.2380: real time    0.2416
    SETDIJ:  cpu time    0.0063: real time    0.0064
    EDDIAG:  cpu time    1.4794: real time    1.4841
  RMM-DIIS:  cpu time   42.3170: real time   42.4429
    ORTHCH:  cpu time    0.4073: real time    0.4084
       DOS:  cpu time    0.0003: real time    0.0003
    CHARGE:  cpu time    0.4619: real time    0.4633
    MIXING:  cpu time    0.0164: real time    0.0165
    --------------------------------------------
      LOOP:  cpu time   44.9267: real time   45.0635

 eigenvalue-minimisations  :   675
 total energy-change (2. order) : 0.7361652E+00  (-0.6304638E-01)
 number of electron     556.0000116 magnetization 
 augmentation part      339.9288545 magnetization 

 Broyden mixing:
  rms(total) = 0.20761E+01    rms(broyden)= 0.20748E+01
  rms(prec ) = 0.24419E+01
  weight for this iteration     100.00

 eigenvalues of (default mixing * dielectric matrix)
  average eigenvalue GAMMA=   0.2062
  1.0554  0.6202  0.6202  0.1306  0.1306  0.1420  0.1420  0.0953  0.0646  0.0646
  0.0511  0.0511  0.0360  0.0360  0.0334  0.0264

 Free energy of the ion-electron system (eV)
  ---------------------------------------------------
  alpha Z        PSCENC =       387.12086559
  Ewald energy   TEWEN  =    181133.78310737
  -Hartree energ DENC   =   -235848.72248160
  -exchange      EXHF   =         0.00000000
  -V(xc)+E(xc)   XCENC  =      1678.26254966
  PAW double counting   =     49880.18465617   -53625.43750695
  entropy T*S    EENTRO =        -0.41091008
  eigenvalues    EBANDS =     -3423.30527453
  atomic energy  EATOM  =     59560.90262231
  Solvation  Ediel_sol  =         0.00000000
  ---------------------------------------------------
  free energy    TOTEN  =      -257.62237207 eV

  energy without entropy =     -257.21146199  energy(sigma->0) =     -257.41691703


--------------------------------------------------------------------------------------------------------




--------------------------------------- Iteration      1(  22)  ---------------------------------------


    POTLOK:  cpu time    0.2390: real time    0.2432
    SETDIJ:  cpu time    0.0063: real time    0.0063
    EDDIAG:  cpu time    1.4661: real time    1.4709
  RMM-DIIS:  cpu time   42.4038: real time   42.5187
    ORTHCH:  cpu time    0.4101: real time    0.4111
       DOS:  cpu time    0.0004: real time    0.0004
    CHARGE:  cpu time    0.4585: real time    0.4598
    MIXING:  cpu time    0.0171: real time    0.0172
    --------------------------------------------
      LOOP:  cpu time   45.0012: real time   45.1276

 eigenvalue-minimisations  :   676
 total energy-change (2. order) : 0.5183856E+00  (-0.3132286E-01)
 number of electron     556.0000128 magnetization 
 augmentation part      340.0445024 magnetization 

 Broyden mixing:
  rms(total) = 0.15225E+01    rms(broyden)= 0.15215E+01
  rms(prec ) = 0.17828E+01
  weight for this iteration     100.00

 eigenvalues of (default mixing * dielectric matrix)
  average eigenvalue GAMMA=   0.2018
  1.0633  0.6139  0.6139  0.1637  0.1637  0.1264  0.1264  0.1208  0.0763  0.0763
  0.0599  0.0498  0.0498  0.0345  0.0345  0.0314  0.0264

 Free energy of the ion-electron system (eV)
  ---------------------------------------------------
  alpha Z        PSCENC =       387.12086559
  Ewald energy   TEWEN  =    181133.78310737
  -Hartree energ DENC   =   -235850.84600776
  -exchange      EXHF   =         0.00000000
  -V(xc)+E(xc)   XCENC  =      1678.07700033
  PAW double counting   =     49899.60782125   -53645.06028429
  entropy T*S    EENTRO =        -0.48078135
  eigenvalues    EBANDS =     -3420.20832996
  atomic energy  EATOM  =     59560.90262231
  Solvation  Ediel_sol  =         0.00000000
  ---------------------------------------------------
  free energy    TOTEN  =      -257.10398651 eV

  energy without entropy =     -256.62320516  energy(sigma->0) =     -256.86359583


--------------------------------------------------------------------------------------------------------




--------------------------------------- Iteration      1(  23)  ---------------------------------------


    POTLOK:  cpu time    0.2404: real time    0.2438
    SETDIJ:  cpu time    0.0063: real time    0.0064
    EDDIAG:  cpu time    1.4671: real time    1.4718
  RMM-DIIS:  cpu time   42.2611: real time   42.3830
    ORTHCH:  cpu time    0.4080: real time    0.4090
       DOS:  cpu time    0.0004: real time    0.0003
    CHARGE:  cpu time    0.4525: real time    0.4539
    MIXING:  cpu time    0.0186: real time    0.0186
    --------------------------------------------
      LOOP:  cpu time   44.8544: real time   44.9868

 eigenvalue-minimisations  :   675
 total energy-change (2. order) : 0.3308853E+00  (-0.2304956E-01)
 number of electron     556.0000125 magnetization 
 augmentation part      340.0573835 magnetization 

 Broyden mixing:
  rms(total) = 0.10109E+01    rms(broyden)= 0.10099E+01
  rms(prec ) = 0.12081E+01
  weight for this iteration     100.00

 eigenvalues of (default mixing * dielectric matrix)
  average eigenvalue GAMMA=   0.1994
  1.0722  0.6149  0.6149  0.1912  0.1912  0.1418  0.1255  0.1255  0.0908  0.0908
  0.0506  0.0506  0.0527  0.0527  0.0336  0.0336  0.0307  0.0265

 Free energy of the ion-electron system (eV)
  ---------------------------------------------------
  alpha Z        PSCENC =       387.12086559
  Ewald energy   TEWEN  =    181133.78310737
  -Hartree energ DENC   =   -235852.77782589
  -exchange      EXHF   =         0.00000000
  -V(xc)+E(xc)   XCENC  =      1677.88204602
  PAW double counting   =     49907.99984876   -53653.62920805
  entropy T*S    EENTRO =        -0.51594165
  eigenvalues    EBANDS =     -3417.53861565
  atomic energy  EATOM  =     59560.90262231
  Solvation  Ediel_sol  =         0.00000000
  ---------------------------------------------------
  free energy    TOTEN  =      -256.77310118 eV

  energy without entropy =     -256.25715953  energy(sigma->0) =     -256.51513036


--------------------------------------------------------------------------------------------------------




--------------------------------------- Iteration      1(  24)  ---------------------------------------


    POTLOK:  cpu time    0.2402: real time    0.2447
    SETDIJ:  cpu time    0.0065: real time    0.0065
    EDDIAG:  cpu time    1.4663: real time    1.4710
  RMM-DIIS:  cpu time   42.2496: real time   42.3639
    ORTHCH:  cpu time    0.4149: real time    0.4159
       DOS:  cpu time    0.0004: real time    0.0004
    CHARGE:  cpu time    0.4533: real time    0.4547
    MIXING:  cpu time    0.0191: real time    0.0192
    --------------------------------------------
      LOOP:  cpu time   44.8503: real time   44.9762

 eigenvalue-minimisations  :   674
 total energy-change (2. order) : 0.1611293E+00  (-0.1767034E-01)
 number of electron     556.0000114 magnetization 
 augmentation part      340.2122426 magnetization 

 Broyden mixing:
  rms(total) = 0.74628E+00    rms(broyden)= 0.74523E+00
  rms(prec ) = 0.85754E+00
  weight for this iteration     100.00

 eigenvalues of (default mixing * dielectric matrix)
  average eigenvalue GAMMA=   0.2021
  1.0768  0.6110  0.6110  0.2652  0.2652  0.1602  0.1254  0.1254  0.1032  0.1032
  0.0610  0.0510  0.0510  0.0534  0.0534  0.0337  0.0337  0.0265  0.0305

 Free energy of the ion-electron system (eV)
  ---------------------------------------------------
  alpha Z        PSCENC =       387.12086559
  Ewald energy   TEWEN  =    181133.78310737
  -Hartree energ DENC   =   -235855.27807396
  -exchange      EXHF   =         0.00000000
  -V(xc)+E(xc)   XCENC  =      1677.67728376
  PAW double counting   =     49921.13497981   -53666.94584309
  entropy T*S    EENTRO =        -0.50359325
  eigenvalues    EBANDS =     -3414.50332044
  atomic energy  EATOM  =     59560.90262231
  Solvation  Ediel_sol  =         0.00000000
  ---------------------------------------------------
  free energy    TOTEN  =      -256.61197189 eV

  energy without entropy =     -256.10837865  energy(sigma->0) =     -256.36017527


--------------------------------------------------------------------------------------------------------




--------------------------------------- Iteration      1(  25)  ---------------------------------------


    POTLOK:  cpu time    0.2398: real time    0.2433
    SETDIJ:  cpu time    0.0063: real time    0.0063
    EDDIAG:  cpu time    1.4790: real time    1.4838
  RMM-DIIS:  cpu time   42.3161: real time   42.4371
    ORTHCH:  cpu time    0.4104: real time    0.4114
       DOS:  cpu time    0.0004: real time    0.0004
    CHARGE:  cpu time    0.4578: real time    0.4591
    MIXING:  cpu time    0.0211: real time    0.0211
    --------------------------------------------
      LOOP:  cpu time   44.9309: real time   45.0626

 eigenvalue-minimisations  :   675
 total energy-change (2. order) :-0.1572472E+00  (-0.1957407E-01)
 number of electron     556.0000115 magnetization 
 augmentation part      340.3271364 magnetization 

 Broyden mixing:
  rms(total) = 0.12151E+01    rms(broyden)= 0.12141E+01
  rms(prec ) = 0.15129E+01
  weight for this iteration     100.00

 eigenvalues of (default mixing * dielectric matrix)
  average eigenvalue GAMMA=   0.2212
  1.0334  0.7325  0.7325  0.4227  0.4227  0.1607  0.1260  0.1260  0.1240  0.0910
  0.0663  0.0663  0.0567  0.0503  0.0503  0.0384  0.0334  0.0334  0.0265  0.0303

 Free energy of the ion-electron system (eV)
  ---------------------------------------------------
  alpha Z        PSCENC =       387.12086559
  Ewald energy   TEWEN  =    181133.78310737
  -Hartree energ DENC   =   -235858.79794729
  -exchange      EXHF   =         0.00000000
  -V(xc)+E(xc)   XCENC  =      1677.55642545
  PAW double counting   =     49937.49284243   -53683.72441952
  entropy T*S    EENTRO =        -0.46462306
  eigenvalues    EBANDS =     -3410.63809236
  atomic energy  EATOM  =     59560.90262231
  Solvation  Ediel_sol  =         0.00000000
  ---------------------------------------------------
  free energy    TOTEN  =      -256.76921908 eV

  energy without entropy =     -256.30459602  energy(sigma->0) =     -256.53690755


--------------------------------------------------------------------------------------------------------




--------------------------------------- Iteration      1(  26)  ---------------------------------------


    POTLOK:  cpu time    0.2405: real time    0.2445
    SETDIJ:  cpu time    0.0063: real time    0.0063
    EDDIAG:  cpu time    1.4684: real time    1.4732
  RMM-DIIS:  cpu time   42.2754: real time   42.4031
    ORTHCH:  cpu time    0.4116: real time    0.4131
       DOS:  cpu time    0.0003: real time    0.0003
    CHARGE:  cpu time    0.4606: real time    0.4619
    MIXING:  cpu time    0.0212: real time    0.0212
    --------------------------------------------
      LOOP:  cpu time   44.8843: real time   45.0236

 eigenvalue-minimisations  :   675
 total energy-change (2. order) :-0.2450983E+00  (-0.3009909E-01)
 number of electron     556.0000124 magnetization 
 augmentation part      340.4710549 magnetization 

 Broyden mixing:
  rms(total) = 0.16370E+01    rms(broyden)= 0.16356E+01
  rms(prec ) = 0.20417E+01
  weight for this iteration     100.00

 eigenvalues of (default mixing * dielectric matrix)
  average eigenvalue GAMMA=   0.2261
  1.0070  0.8227  0.8227  0.4763  0.4763  0.1473  0.1473  0.1260  0.1260  0.0844
  0.0844  0.0622  0.0622  0.0502  0.0502  0.0467  0.0336  0.0336  0.0265  0.0302
  0.0329

 Free energy of the ion-electron system (eV)
  ---------------------------------------------------
  alpha Z        PSCENC =       387.12086559
  Ewald energy   TEWEN  =    181133.78310737
  -Hartree energ DENC   =   -235867.92404660
  -exchange      EXHF   =         0.00000000
  -V(xc)+E(xc)   XCENC  =      1677.40535350
  PAW double counting   =     49977.71445226   -53724.40349673
  entropy T*S    EENTRO =        -0.39547078
  eigenvalues    EBANDS =     -3401.21770433
  atomic energy  EATOM  =     59560.90262231
  Solvation  Ediel_sol  =         0.00000000
  ---------------------------------------------------
  free energy    TOTEN  =      -257.01431740 eV

  energy without entropy =     -256.61884662  energy(sigma->0) =     -256.81658201


--------------------------------------------------------------------------------------------------------




--------------------------------------- Iteration      1(  27)  ---------------------------------------


    POTLOK:  cpu time    0.2412: real time    0.2450
    SETDIJ:  cpu time    0.0064: real time    0.0064
    EDDIAG:  cpu time    1.4722: real time    1.4760
  RMM-DIIS:  cpu time   42.3179: real time   42.4494
    ORTHCH:  cpu time    0.4107: real time    0.4117
       DOS:  cpu time    0.0003: real time    0.0003
    CHARGE:  cpu time    0.4564: real time    0.4578
    MIXING:  cpu time    0.0226: real time    0.0226
    --------------------------------------------
      LOOP:  cpu time   44.9276: real time   45.0692

 eigenvalue-minimisations  :   675
 total energy-change (2. order) : 0.2379632E+00  (-0.2557863E-01)
 number of electron     556.0000137 magnetization 
 augmentation part      340.5298649 magnetization 

 Broyden mixing:
  rms(total) = 0.12198E+01    rms(broyden)= 0.12185E+01
  rms(prec ) = 0.14944E+01
  weight for this iteration     100.00

 eigenvalues of (default mixing * dielectric matrix)
  average eigenvalue GAMMA=   0.2310
  1.0282  0.8466  0.8466  0.5511  0.5511  0.1643  0.1643  0.1266  0.1266  0.0942
  0.0942  0.0715  0.0573  0.0573  0.0504  0.0504  0.0443  0.0336  0.0336  0.0265
  0.0332  0.0302

 Free energy of the ion-electron system (eV)
  ---------------------------------------------------
  alpha Z        PSCENC =       387.12086559
  Ewald energy   TEWEN  =    181133.78310737
  -Hartree energ DENC   =   -235875.73694784
  -exchange      EXHF   =         0.00000000
  -V(xc)+E(xc)   XCENC  =      1677.35603659
  PAW double counting   =     50008.98139386   -53756.25550003
  entropy T*S    EENTRO =        -0.47565987
  eigenvalues    EBANDS =     -3392.45227218
  atomic energy  EATOM  =     59560.90262231
  Solvation  Ediel_sol  =         0.00000000
  ---------------------------------------------------
  free energy    TOTEN  =      -256.77635419 eV

  energy without entropy =     -256.30069433  energy(sigma->0) =     -256.53852426


--------------------------------------------------------------------------------------------------------




--------------------------------------- Iteration      1(  28)  ---------------------------------------


    POTLOK:  cpu time    0.2418: real time    0.2465
    SETDIJ:  cpu time    0.0063: real time    0.0064
    EDDIAG:  cpu time    1.4665: real time    1.4731
  RMM-DIIS:  cpu time   42.3336: real time   42.4614
    ORTHCH:  cpu time    0.4090: real time    0.4100
[...]
    FORCOR:  cpu time    0.3238: real time    0.3255
    FORHAR:  cpu time    0.1505: real time    0.1508
    MIXING:  cpu time    0.0269: real time    0.0270
    OFIELD:  cpu time    0.0001: real time    0.0000

  FORCE on cell =-STRESS in cart. coord.  units (eV):
  Direction    XX          YY          ZZ          XY          YZ          ZX
  --------------------------------------------------------------------------------------
  Alpha Z   387.12087   387.12087   387.12087
  Ewald   59516.53288 59479.95907 63200.41952   581.50513  -595.91363 -1038.67182
  Hartree 77938.66595 77864.36534 81329.56199   523.10457  -537.30730  -943.41723
  E(xc)   -3038.19417 -3038.20977 -3037.54416     0.06770    -0.12181    -0.26579
  Local  ************************************ -1103.55793  1130.39141  1978.86595
  n-local -1801.42853 -1799.51903 -1796.75171     1.23750    -0.44530    -0.10513
  augment  2817.32735  2816.48811  2811.47882    -0.38403     1.70899     1.94140
  Kinetic  4369.22320  4367.45933  4361.02542    -1.35082     1.02799     2.90087
  Fock        0.00000     0.00000     0.00000     0.00000     0.00000     0.00000
  -------------------------------------------------------------------------------------
  Total      -3.94627    -2.44461    -2.18111     0.62211    -0.65965     1.24825
  in kB      -0.79033    -0.48959    -0.43682     0.12459    -0.13211     0.24999
  external pressure =       -0.57 kB  Pullay stress =        0.00 kB


 VOLUME and BASIS-vectors are now :
 -----------------------------------------------------------------------------
  energy-cutoff  :      400.00
  volume of cell :     8000.00
      direct lattice vectors                 reciprocal lattice vectors
    20.000000000  0.000000000  0.000000000     0.050000000  0.000000000  0.000000000
     0.000000000 20.000000000  0.000000000     0.000000000  0.050000000  0.000000000
     0.000000000  0.000000000 20.000000000     0.000000000  0.000000000  0.050000000

  length of vectors
    20.000000000 20.000000000 20.000000000     0.050000000  0.050000000  0.050000000


 FORCES acting on ions
    electron-ion (+dipol)            ewald-force                    non-local-force                 convergence-correction
 -----------------------------------------------------------------------------------------------
   0.183E+04 -.117E+04 0.604E+03   -.183E+04 0.117E+04 -.604E+03   -.193E+01 0.129E+01 -.672E+00   -.261E-02 0.351E-02 0.444E-02
   0.727E+03 -.190E+04 0.968E+03   -.726E+03 0.190E+04 -.967E+03   -.820E+00 0.210E+01 -.920E+00   0.434E-02 0.133E-01 0.108E-01
   0.116E+04 -.190E+04 -.357E+03   -.116E+04 0.190E+04 0.357E+03   -.109E+01 0.206E+01 0.290E+00   0.546E-02 0.610E-02 -.438E-02
   0.303E+02 -.229E+04 0.107E+02   -.302E+02 0.228E+04 -.107E+02   -.110E+00 0.680E+01 -.841E-01   -.456E-03 0.198E-02 -.233E-02
   0.977E+01 -.131E+04 0.164E+02   -.978E+01 0.131E+04 -.163E+02   0.195E-01 -.119E+00 -.851E-01   -.295E-02 0.896E-02 0.235E-02
   -.684E+03 -.192E+04 0.966E+03   0.683E+03 0.192E+04 -.965E+03   0.673E+00 0.216E+01 -.104E+01   -.218E-02 0.123E-01 0.690E-02
   -.112E+04 -.192E+04 -.364E+03   0.111E+04 0.192E+04 0.364E+03   0.121E+01 0.213E+01 0.463E+00   -.855E-02 0.991E-02 -.595E-02
   0.198E+04 -.104E+04 -.630E+03   -.197E+04 0.104E+04 0.629E+03   -.593E+01 0.309E+01 0.194E+01   -.203E-02 -.117E-03 -.230E-03
   0.182E+04 0.409E+01 -.128E+04   -.181E+04 -.372E+01 0.127E+04   -.174E+01 -.359E+00 0.306E+01   0.748E-03 -.153E-01 -.403E-02
   0.111E+04 -.582E+03 -.351E+03   -.111E+04 0.582E+03 0.351E+03   0.164E+00 0.219E-01 -.139E+00   0.441E-02 -.924E-02 0.212E-02
   0.115E+04 -.120E+04 -.151E+04   -.115E+04 0.120E+04 0.151E+04   -.164E+01 0.121E+01 0.202E+01   -.493E-02 0.140E-02 -.673E-02
   0.170E+02 -.192E+04 -.117E+04   -.170E+02 0.192E+04 0.116E+04   -.197E-02 0.191E+01 0.972E+00   -.130E-02 0.924E-02 -.108E-01
   -.427E+01 -.590E+03 -.114E+04   0.401E+01 0.589E+03 0.114E+04   0.264E+00 0.107E+00 -.245E+00   0.626E-03 -.159E-01 -.151E-01
   -.112E+04 -.595E+03 -.351E+03   0.112E+04 0.595E+03 0.351E+03   -.956E-01 -.117E+00 -.118E+00   -.400E-02 -.238E-01 -.566E-03
   -.114E+04 -.121E+04 -.153E+04   0.114E+04 0.121E+04 0.153E+04   0.119E+01 0.127E+01 0.143E+01   0.340E-02 -.192E-02 0.349E-03
   0.124E+04 -.104E+04 0.168E+04   -.123E+04 0.104E+04 -.168E+04   -.362E+01 0.293E+01 -.504E+01   -.789E-02 0.297E-02 -.200E-02
   0.181E+04 0.132E+02 0.134E+04   -.181E+04 -.134E+02 -.134E+04   -.179E+01 0.154E+00 -.153E+01   -.528E-02 -.925E-02 -.256E-03
   0.695E+03 0.105E+01 0.212E+04   -.695E+03 -.996E+00 -.212E+04   -.879E+00 -.301E-01 -.229E+01   0.739E-05 -.163E-01 -.523E-02
   0.694E+03 -.580E+03 0.954E+03   -.694E+03 0.580E+03 -.954E+03   0.470E-01 -.151E+00 0.128E+00   -.767E-03 -.582E-02 0.126E-01
   0.106E+02 -.120E+04 0.190E+04   -.106E+02 0.119E+04 -.190E+04   -.825E-01 0.136E+01 -.213E+01   0.409E-02 0.660E-02 -.153E-02
   -.150E+02 0.582E+03 0.117E+04   0.150E+02 -.582E+03 -.118E+04   -.131E-01 0.415E-01 0.161E+00   0.143E-01 -.260E-01 0.132E-01
   -.709E+03 -.139E+02 0.212E+04   0.708E+03 0.140E+02 -.212E+04   0.764E+00 -.584E-01 -.235E+01   0.809E-02 -.198E-01 -.907E-03
   -.688E+03 -.597E+03 0.954E+03   0.688E+03 0.597E+03 -.954E+03   -.673E-01 -.502E-01 0.119E+00   0.721E-02 -.128E-01 0.940E-02
   0.223E+04 0.190E+02 0.207E+02   -.223E+04 -.188E+02 -.207E+02   -.244E+01 -.132E+00 -.354E-01   0.211E-02 -.858E-02 0.466E-02
   0.181E+04 0.121E+04 -.527E+03   -.181E+04 -.121E+04 0.527E+03   -.210E+01 -.953E+00 -.156E+00   0.115E-01 -.696E-02 0.653E-02
   0.110E+04 0.595E+03 0.378E+03   -.110E+04 -.595E+03 -.378E+03   0.147E+00 0.410E-01 0.180E+00   0.110E-01 -.177E-01 0.146E-01
   0.665E+03 0.589E+03 -.933E+03   -.665E+03 -.589E+03 0.933E+03   -.379E-02 0.709E-01 -.116E+00   0.894E-02 -.216E-01 -.995E-02
   -.700E+01 -.539E+00 0.367E+01   0.692E+01 0.528E+00 -.359E+01   0.689E-01 0.409E-01 -.863E-01   0.726E-02 -.304E-01 0.116E-01
   -.328E+02 0.130E+04 0.127E+02   0.328E+02 -.130E+04 -.126E+02   -.118E-01 0.187E+00 -.930E-01   0.149E-01 -.243E-02 0.975E-02
   -.113E+04 0.575E+03 0.367E+03   0.113E+04 -.575E+03 -.367E+03   -.176E+00 0.771E-01 0.978E-02   -.125E-03 -.314E-01 0.979E-02
   -.694E+03 0.592E+03 -.944E+03   0.694E+03 -.593E+03 0.944E+03   0.142E+00 0.183E+00 -.279E+00   0.302E-02 -.271E-01 -.168E-01
   -.181E+04 -.121E+04 0.597E+03   0.181E+04 0.121E+04 -.596E+03   0.198E+01 0.129E+01 -.618E+00   0.280E-02 0.772E-04 -.449E-02
   -.196E+04 -.107E+04 -.646E+03   0.195E+04 0.107E+04 0.644E+03   0.572E+01 0.301E+01 0.186E+01   0.544E-02 -.469E-02 0.191E-02
   -.182E+04 -.141E+02 -.132E+04   0.182E+04 0.141E+02 0.132E+04   0.193E+01 0.520E-01 0.127E+01   -.182E-03 -.242E-01 -.469E-02
   -.122E+04 -.107E+04 0.168E+04   0.122E+04 0.106E+04 -.167E+04   0.352E+01 0.308E+01 -.485E+01   0.876E-02 0.170E-02 -.198E-02
   -.182E+04 -.241E+02 0.133E+04   0.182E+04 0.242E+02 -.132E+04   0.210E+01 -.586E-01 -.146E+01   0.125E-02 -.214E-01 0.515E-02
   -.223E+04 -.201E+02 -.177E+01   0.223E+04 0.201E+02 0.172E+01   0.246E+01 0.253E-01 0.591E-01   -.631E-02 -.255E-01 -.659E-03
   -.183E+04 0.118E+04 -.595E+03   0.182E+04 -.117E+04 0.595E+03   0.193E+01 -.124E+01 0.548E+00   -.146E-01 -.510E-02 -.808E-02
   0.646E+03 -.127E+03 -.198E+04   -.645E+03 0.130E+03 0.198E+04   -.755E+00 -.249E+01 0.399E+00   -.299E-02 -.174E-01 -.572E-02
   -.291E+02 -.111E+04 -.203E+04   0.292E+02 0.111E+04 0.202E+04   -.109E+00 0.287E+01 0.644E+01   0.198E-02 0.517E-02 0.405E-02
   -.747E+03 -.244E+02 -.209E+04   0.747E+03 0.247E+02 0.209E+04   0.144E+00 -.258E+00 0.285E+01   0.853E-02 -.189E-01 -.920E-02
   0.126E+04 0.114E+04 -.144E+04   -.126E+04 -.114E+04 0.144E+04   -.447E+00 -.982E-01 0.365E+01   0.459E-02 -.727E-02 -.109E-01
   0.646E+03 0.193E+04 -.912E+03   -.646E+03 -.192E+04 0.911E+03   -.144E+00 -.205E+01 0.108E+01   0.821E-02 0.996E-02 -.562E-02
   -.647E+02 0.117E+04 -.183E+04   0.660E+02 -.117E+04 0.183E+04   -.147E+01 -.658E+00 0.314E+01   0.356E-02 -.124E-01 -.179E-01
   -.720E+03 0.189E+04 -.965E+03   0.719E+03 -.189E+04 0.964E+03   0.779E+00 -.238E+01 0.107E+01   0.103E-02 0.128E-01 -.131E-01
   -.125E+04 0.104E+04 -.166E+04   0.125E+04 -.104E+04 0.166E+04   0.373E+01 -.302E+01 0.509E+01   -.119E-02 -.695E-02 -.192E-01
   0.111E+04 0.120E+04 0.156E+04   -.111E+04 -.119E+04 -.156E+04   -.103E+01 -.113E+01 -.167E+01   0.626E-02 -.913E-02 0.291E-02
   -.229E+02 0.104E+04 0.206E+04   0.229E+02 -.104E+04 -.206E+04   0.263E-01 -.300E+01 -.613E+01   0.746E-02 -.108E-01 0.346E-02
   -.115E+04 0.117E+04 0.155E+04   0.115E+04 -.117E+04 -.155E+04   0.124E+01 -.130E+01 -.164E+01   0.219E-02 -.819E-02 0.149E-01
   0.195E+04 0.106E+04 0.689E+03   -.194E+04 -.106E+04 -.688E+03   -.582E+01 -.329E+01 -.152E+01   0.372E-02 -.736E-02 0.524E-02
   0.110E+04 0.192E+04 0.400E+03   -.110E+04 -.192E+04 -.399E+03   -.128E+01 -.224E+01 -.486E+00   0.108E-01 0.263E-02 0.101E-01
   -.314E+02 0.190E+04 0.120E+04   0.313E+02 -.190E+04 -.120E+04   0.403E-01 -.195E+01 -.129E+01   0.110E-01 0.489E-02 0.108E-01
   -.116E+04 0.189E+04 0.371E+03   0.116E+04 -.189E+04 -.370E+03   0.142E+01 -.202E+01 -.398E+00   -.209E-02 0.156E-01 0.687E-02
   -.198E+04 0.103E+04 0.650E+03   0.197E+04 -.102E+04 -.648E+03   0.583E+01 -.298E+01 -.192E+01   -.168E-01 -.713E-02 0.771E-02
   -.501E+02 0.229E+04 0.203E+02   0.501E+02 -.228E+04 -.204E+02   -.117E-01 -.691E+01 0.501E-01   0.676E-02 0.170E-01 0.370E-02
   0.435E+03 0.298E+03 -.115E+04   -.436E+03 -.298E+03 0.115E+04   0.194E+01 -.117E+00 -.243E+01   -.188E-02 -.902E-02 -.186E-02
 -----------------------------------------------------------------------------------------------
   -.399E+01 -.533E-01 0.355E+01   -.455E-11 -.739E-12 -.364E-11   0.387E+01 0.410E+00 -.356E+01   0.117E+00 -.352E+00 0.575E-02
 
 
 POSITION                                       TOTAL-FORCE (eV/Angst)
 -----------------------------------------------------------------------------------
      7.00996     11.90191      8.21079        -0.001506     -0.005466      0.000580
      9.02084     13.25682      7.55292        -0.003008     -0.004601      0.002984
      8.25469     13.24505      9.94942         0.005410      0.005487     -0.003005
     10.26192     14.45613      9.27883         0.003866      0.007909     -0.013024
     10.29921     12.15984      9.26710         0.013844      0.003487     -0.009480
     11.54543     13.29894      7.56168         0.006704      0.004043     -0.002885
     12.31213     13.30094      9.94625         0.005203      0.006005     -0.009577
      6.35167     11.84414     10.55547         0.009356      0.000496      0.002703
      7.02050      9.76811     11.64753        -0.002924     -0.004840     -0.068939
      8.32264     10.84439      9.93629         0.014968      0.014137      0.001270
      8.26339     11.94357     12.08241        -0.010038      0.011676      0.009003
     10.28159     13.28034     11.40121         0.003460      0.008272     -0.017744
     10.31354     10.86931     11.38433         0.006264      0.009487      0.002895
     12.30556     10.88056      9.92033         0.001089     -0.006665     -0.004984
     12.33823     11.98424     12.06902         0.005570      0.015968     -0.012474
      7.86212     11.86936      5.92517        -0.001711      0.003454     -0.000012
      7.03952      9.78520      6.88226        -0.001034      0.004779     -0.011785
      9.06905      9.81036      5.41471         0.003975      0.002886      0.001099
      9.07688     10.84452      7.58837        -0.005842     -0.006767      0.003775
     10.30132     11.96184      5.82839        -0.001945      0.002763      0.002929
     10.33688      8.77446      7.18565         0.003078      0.001024     -0.001363
     11.58438      9.84205      5.41735         0.003982     -0.001221     -0.000266
     11.54328     10.88439      7.58566        -0.005689     -0.002252     -0.003740
      6.25747      9.75848      9.28053         0.005241      0.001585     -0.021403
      7.04163      7.62741     10.28854        -0.035461      0.003363     -0.049124
      8.34131      8.74415      8.63869        -0.001108     -0.001313      0.000772
      9.08917      8.73931     10.98029        -0.017444     -0.007225     -0.003237
     10.32279      9.81833      9.28928         0.001746     -0.001299     -0.000001
     10.35271      7.47573      9.27454         0.002037      0.002530     -0.016931
     12.32407      8.79601      8.63220        -0.001493      0.005145      0.004537
     11.54656      8.77751     10.99330        -0.039776     -0.003809      0.026358
     13.58729     11.99941      8.22104         0.002443     -0.004606     -0.004123
     14.24083     11.92798     10.56704         0.001964     -0.006316     -0.008436
     13.59328      9.85471     11.67659        -0.019993     -0.001824      0.003547
     12.73721     11.92808      5.93563        -0.002869      0.000289     -0.001281
     13.61439      9.86313      6.89914        -0.000140     -0.002503      0.009408
     14.38873      9.85601      9.28811         0.004388     -0.007939      0.008478
     13.61394      7.71594     10.35285        -0.036620      0.006576      0.026656
      9.07948      9.92504     13.22337        -0.038719      0.075618     -0.020746
     10.32734     11.95384     13.41924        -0.000855      0.038532     -0.013604
     11.58661      9.85661     13.14630        -0.011496      0.042046      0.007797
      7.80087      7.58213     12.53931        -0.106507     -0.009097     -0.067296
      9.10137      6.33475     10.96588        -0.033763      0.019565     -0.012122
     10.27277      7.70820     12.85181        -0.146013      0.085008      0.185236
     11.58533      6.37756     11.03380        -0.058208      0.023920      0.045809
     12.76169      7.76946     12.63989        -0.077489      0.021710      0.032460
      8.32629      7.66084      6.47391         0.005160      0.011541     -0.014248
     10.35620      7.75641      5.12807         0.007375     -0.004199     -0.002778
     12.38269      7.70967      6.48217        -0.000967     -0.004035      0.005837
      6.40307      7.70398      7.94968        -0.002151      0.004227     -0.044255
      8.32826      6.32607      8.59447        -0.005000      0.001719     -0.016286
     10.35524      6.36852      7.13337        -0.001490     -0.002114     -0.001108
     12.39688      6.38968      8.61754        -0.006476      0.000241      0.019899
     14.29080      7.79162      8.00360        -0.007968     -0.007280      0.015595
     10.39092      5.17912      9.25668        -0.010469      0.007924      0.013272
      8.28716      8.39401     14.36757         0.579049     -0.358045      0.023356
 -----------------------------------------------------------------------------------
    total drift:                               -0.000233      0.005014      0.003636


--------------------------------------------------------------------------------------------------------



  FREE ENERGIE OF THE ION-ELECTRON SYSTEM (eV)
  ---------------------------------------------------
  free  energy   TOTEN  =      -257.67157805 eV

  energy  without entropy=     -257.14095021  energy(sigma->0) =     -257.40626413
 
 d Force = 0.5333998E-02[ 0.527E-02, 0.539E-02]  d Energy = 0.5338145E-02-0.415E-05
 d Force =-0.8156319E+01[-0.813E+01,-0.818E+01]  d Ewald  =-0.8156315E+01-0.332E-05


--------------------------------------------------------------------------------------------------------


    POTLOK:  cpu time    0.2584: real time    0.2595


--------------------------------------------------------------------------------------------------------


 NEB: the previous image is higher in energy: F
 NEB: the next image is higher in energy    : T
 NEB: only next energy greater

 NEB: Tangent
 ----------------------------------------------
      0.00440     -0.00350      0.01466
     -0.00607      0.00489      0.00023
      0.00481     -0.00766      0.01048
     -0.00109     -0.00517     -0.00288
     -0.00486     -0.00139     -0.00584
     -0.00119      0.00020     -0.00339
      0.00244     -0.00189      0.00244
      0.01099     -0.01437      0.02038
      0.02593     -0.00347      0.11374
     -0.00456     -0.01416      0.00887
      0.02897      0.00438      0.00053
      0.01051      0.00378      0.00234
     -0.00770     -0.00052     -0.00109
      0.00415      0.00981     -0.00900
      0.00460     -0.00515     -0.00558
     -0.00339     -0.00476      0.00687
     -0.00074     -0.00280      0.00943
     -0.00440     -0.00247     -0.00222
      0.00571      0.00364     -0.00322
     -0.00138      0.00044      0.00358
      0.00142      0.00114     -0.00194
     -0.00152      0.00073     -0.00238
      0.00573     -0.00191     -0.00236
      0.00939     -0.00931      0.03940
      0.03886     -0.01672      0.02949
      0.00447      0.00347     -0.01128
      0.00709     -0.00251      0.00137
     -0.00167      0.00378     -0.00306
     -0.00659     -0.00065      0.01295
     -0.00315     -0.00840     -0.00277
      0.02808      0.02139     -0.02375
      0.00069      0.00656     -0.00184
      0.00929      0.00364     -0.00611
      0.00564      0.01258      0.00169
      0.00340     -0.00081      0.00032
     -0.00028     -0.00111     -0.00537
     -0.00399     -0.00091     -0.00348
      0.01391     -0.00499     -0.01277
      0.04527     -0.05480      0.03752
      0.01920     -0.01380      0.00583
     -0.00090     -0.01796      0.00429
      0.08799     -0.04488      0.03907
      0.02623     -0.03332     -0.00575
      0.12666     -0.06490     -0.20692
      0.03290     -0.01013     -0.03850
      0.03980      0.00121     -0.01420
      0.00133     -0.01178      0.00686
     -0.00178      0.00560     -0.00022
      0.00313     -0.00302     -0.00171
      0.00444     -0.00085      0.02851
      0.00851     -0.00549     -0.00640
      0.00785      0.00173     -0.00595
      0.00642     -0.00273     -0.01197
      0.00439      0.00089     -0.00508
      0.01477     -0.00873     -0.02417
     -0.81439      0.46130     -0.09475

 NEB: forces: par spring, perp REAL, dneb     0.055645    0.179204    0.000000
 NEB: distance to prev, next image, angle between     0.455428    0.444299  163.975473
 NEB: projections on to tangent (spring, REAL)    -0.055645   -0.747851

 stress matrix after NEB project (eV)
     -3.94627      0.62211      1.24825
      0.62211     -2.44461     -0.65965
      1.24825     -0.65965     -2.18111
  FORCES: max atom, RMS     0.082310    0.025075
  FORCE total and by dimension    0.187645    0.058341
  Stress total and by dimension    5.573774    3.946268
 OPT: skip step - force has converged


--------------------------------------------------------------------------------------------------------


  
 reached required accuracy - stopping structural energy minimisation
     LOOP+:  cpu time 1169.6119: real time 1173.6295
    4ORBIT:  cpu time    0.0000: real time    0.0000

 total amount of memory used by VASP MPI-rank0   308125. kBytes
=======================================================================

   base      :      30000. kBytes
   nonl-proj :     171888. kBytes
   fftplans  :      15318. kBytes
   grid      :      57304. kBytes
   one-center:        870. kBytes
   wavefun   :      32745. kBytes
 
  
  
 General timing and accounting informations for this job:
 ========================================================
  
                  Total CPU time used (sec):    26278.363
                            User time (sec):    26203.859
                          System time (sec):       74.505
                         Elapsed time (sec):    26363.157
  
                   Maximum memory used (kb):      692300.
                   Average memory used (kb):           0.
  
                          Minor page faults:      3480738
                          Major page faults:            2
                 Voluntary context switches:        22305
