neb_test                                
           1
    20.000000    0.000000    0.000000
     0.000000   20.000000    0.000000
     0.000000    0.000000   20.000000
   Ni   S 
  55   1
Direct configuration=     1
   0.35012529  0.59591774  0.41033174
   0.45146601  0.66321773  0.37737950
   0.41197548  0.66259619  0.49703218
   0.51294523  0.72335816  0.46442586
   0.51468008  0.60848574  0.46432579
   0.57707379  0.66503373  0.37781346
   0.61579286  0.66530132  0.49700067
   0.31653035  0.59278451  0.52766047
   0.34959349  0.48889002  0.58346215
   0.41498397  0.54227297  0.49666299
   0.41285909  0.59650715  0.60424952
   0.51373697  0.66345698  0.57120404
   0.51469887  0.54287246  0.57025908
   0.61535121  0.54461754  0.49694095
   0.61613813  0.59870362  0.60440511
   0.39269158  0.59375332  0.29557668
   0.35176398  0.48899303  0.34410041
   0.45379506  0.49081401  0.27024162
   0.45357572  0.54275553  0.37896346
   0.51516977  0.59801374  0.29093716
   0.51668237  0.43842181  0.35881641
   0.57919885  0.49226187  0.27058352
   0.57750411  0.54448515  0.37924518
   0.31255183  0.48789865  0.46416138
   0.35255630  0.38115887  0.51700117
   0.41641983  0.43674950  0.43194859
   0.45480337  0.43743649  0.54980306
   0.51590862  0.49073771  0.46452218
   0.51742285  0.37292426  0.46401396
   0.61685146  0.43947213  0.43165272
   0.57832827  0.43836108  0.54968416
   0.67959647  0.60002312  0.41101613
   0.71237440  0.59690102  0.52900118
   0.68052773  0.49234094  0.58380666
   0.63739766  0.59671175  0.29610074
   0.68094009  0.49318517  0.34454450
   0.71955593  0.49331174  0.46404775
   0.68189150  0.38562505  0.51749653
   0.45353875  0.49377836  0.66176697
   0.51507369  0.59603369  0.67247558
   0.57936104  0.49164362  0.65742515
   0.39256472  0.38224660  0.63038479
   0.45477722  0.31674859  0.54972355
   0.51855885  0.38162613  0.63981742
   0.58073005  0.31806996  0.55065777
   0.64053538  0.38741730  0.63199598
   0.41578030  0.38298666  0.32353544
   0.51742370  0.38735786  0.25559936
   0.61929147  0.38583049  0.32373013
   0.31955434  0.38465570  0.39844236
   0.41630816  0.31648692  0.43085802
   0.51824149  0.31805580  0.35647378
   0.61992804  0.31907944  0.43034174
   0.71538070  0.38926961  0.39979633
   0.51940421  0.25805575  0.46297099
   0.41603845  0.42187570  0.71512304
Direct configuration=     2
   0.35019525  0.59578543  0.41030842
   0.45143294  0.66312714  0.37739518
   0.41211152  0.66253169  0.49709797
   0.51297023  0.72323119  0.46441595
   0.51467970  0.60828240  0.46424751
   0.57707438  0.66496479  0.37787899
   0.61575626  0.66525560  0.49705536
   0.31664161  0.59271461  0.52765058
   0.34972281  0.48892433  0.58318220
   0.41520437  0.54217033  0.49664093
   0.41280397  0.59655025  0.60421983
   0.51374209  0.66345580  0.57105517
   0.51489406  0.54286575  0.56995258
   0.61517468  0.54446265  0.49683445
   0.61618102  0.59869024  0.60429561
   0.39277190  0.59370513  0.29570110
   0.35181587  0.48905243  0.34413297
   0.45372944  0.49075053  0.27033782
   0.45366141  0.54263657  0.37915301
   0.51517650  0.59803313  0.29099500
   0.51667250  0.43848161  0.35901349
   0.57920122  0.49223080  0.27063241
   0.57742789  0.54442446  0.37936319
   0.31257325  0.48789045  0.46419547
   0.35254329  0.38130833  0.51666271
   0.41662493  0.43686923  0.43204086
   0.45479311  0.43741404  0.54953041
   0.51598843  0.49081943  0.46443633
   0.51744774  0.37319649  0.46404526
   0.61664138  0.43956708  0.43170466
   0.57824356  0.43849238  0.54953025
   0.67952928  0.59999847  0.41103385
   0.71226677  0.59683114  0.52894541
   0.68044166  0.49241732  0.58378362
   0.63729607  0.59664059  0.29623755
   0.68090012  0.49319262  0.34459806
   0.71950303  0.49324703  0.46407615
   0.68181972  0.38564662  0.51740961
   0.45510766  0.49660439  0.65991163
   0.51518183  0.59610554  0.67232119
   0.57937755  0.49165332  0.65736417
   0.39154464  0.38029780  0.62692074
   0.45493633  0.31676184  0.54954343
   0.51790782  0.38205902  0.64006478
   0.58065728  0.31809403  0.55073124
   0.64037585  0.38752712  0.63188039
   0.41588052  0.38297694  0.32360417
   0.51747411  0.38746096  0.25576284
   0.61926002  0.38582010  0.32378491
   0.31967193  0.38472012  0.39842852
   0.41631166  0.31644036  0.43075928
   0.51812220  0.31814825  0.35652748
   0.61994148  0.31917421  0.43037536
   0.71524509  0.38935224  0.39984782
   0.51939998  0.25820039  0.46295927
   0.41480306  0.42117063  0.72030772
Direct configuration=     3
   0.35021093  0.59575272  0.41030738
   0.45142164  0.66310634  0.37740740
   0.41214285  0.66251167  0.49711804
   0.51297489  0.72319145  0.46441041
   0.51467862  0.60825689  0.46422186
   0.57707525  0.66495054  0.37789481
   0.61574265  0.66524014  0.49707701
   0.31667195  0.59269679  0.52764612
   0.34977788  0.48891821  0.58311966
   0.41524929  0.54216292  0.49664348
   0.41278301  0.59659829  0.60418984
   0.51375048  0.66346695  0.57101049
   0.51498700  0.54290334  0.56982190
   0.61515938  0.54443414  0.49680942
   0.61619934  0.59869772  0.60426059
   0.39279800  0.59368930  0.29573435
   0.35183188  0.48906400  0.34414592
   0.45371401  0.49073878  0.27036055
   0.45367594  0.54261535  0.37917635
   0.51517619  0.59803210  0.29101238
   0.51667461  0.43849281  0.35903931
   0.57919837  0.49222243  0.27064900
   0.57741395  0.54441478  0.37937707
   0.31257830  0.48789227  0.46419422
   0.35249782  0.38133014  0.51650205
   0.41665572  0.43689239  0.43204483
   0.45481067  0.43741695  0.54946323
   0.51599609  0.49082579  0.46443258
   0.51746542  0.37323858  0.46404184
   0.61660926  0.43958325  0.43170116
   0.57822455  0.43851457  0.54951852
   0.67951281  0.59999275  0.41103811
   0.71223137  0.59680804  0.52892699
   0.68041523  0.49243348  0.58377891
   0.63726834  0.59662263  0.29627572
   0.68088677  0.49319317  0.34461292
   0.71948870  0.49323209  0.46409003
   0.68179360  0.38565220  0.51739368
   0.45495140  0.49633808  0.66012126
   0.51526087  0.59621445  0.67228650
   0.57941039  0.49166735  0.65734599
   0.39157907  0.38032615  0.62720407
   0.45499290  0.31673031  0.54945093
   0.51769867  0.38219339  0.64016314
   0.58063052  0.31811167  0.55075602
   0.64032503  0.38755522  0.63185164
   0.41590389  0.38297712  0.32362590
   0.51748773  0.38748852  0.25580901
   0.61925233  0.38581205  0.32380093
   0.31970524  0.38474224  0.39842201
   0.41631381  0.31643139  0.43072463
   0.51809251  0.31816909  0.35654332
   0.61993760  0.31919949  0.43038702
   0.71520447  0.38937580  0.39985974
   0.51939923  0.25824680  0.46296211
   0.41480876  0.42118180  0.72002986
Direct configuration=     4
   0.35024449  0.59568300  0.41030769
   0.45139722  0.66306286  0.37743297
   0.41220824  0.66246989  0.49715990
   0.51298495  0.72311015  0.46439666
   0.51467767  0.60820614  0.46416173
   0.57707751  0.66492158  0.37792906
   0.61571359  0.66520684  0.49712081
   0.31673788  0.59265896  0.52763602
   0.34989876  0.48889788  0.58298856
   0.41534071  0.54215033  0.49664979
   0.41275514  0.59668501  0.60413473
   0.51376713  0.66349078  0.57091989
   0.51515711  0.54298266  0.56960331
   0.61513530  0.54437613  0.49675056
   0.61623961  0.59871557  0.60418938
   0.39285334  0.59365601  0.29580487
   0.35186526  0.48908803  0.34417219
   0.45368178  0.49071316  0.27040988
   0.45370582  0.54257100  0.37922305
   0.51517481  0.59803002  0.29105028
   0.51667951  0.43851685  0.35909222
   0.57919278  0.49220497  0.27068417
   0.57738505  0.54439515  0.37940201
   0.31258955  0.48789760  0.46419013
   0.35241713  0.38137550  0.51619540
   0.41672043  0.43694007  0.43205217
   0.45482866  0.43740797  0.54934425
   0.51601535  0.49083803  0.46441542
   0.51750148  0.37332496  0.46403290
   0.61654416  0.43961634  0.43169247
   0.57818341  0.43855494  0.54949887
   0.67947832  0.59998094  0.41104838
   0.71215882  0.59675941  0.52888668
   0.68035833  0.49246722  0.58376946
   0.63720961  0.59658474  0.29635562
   0.68085912  0.49319349  0.34464495
   0.71945879  0.49319989  0.46411800
   0.68173546  0.38566399  0.51736287
   0.45469292  0.49590573  0.66047099
   0.51541315  0.59641449  0.67219022
   0.57946675  0.49170488  0.65730664
   0.39162252  0.38034941  0.62766011
   0.45509932  0.31667979  0.54926978
   0.51726493  0.38248121  0.64036786
   0.58056950  0.31815356  0.55081147
   0.64020720  0.38761679  0.63179110
   0.41595263  0.38297776  0.32367022
   0.51751703  0.38754583  0.25590497
   0.61923590  0.38579461  0.32383438
   0.31977355  0.38478890  0.39840057
   0.41631946  0.31641269  0.43064925
   0.51803073  0.31821295  0.35657666
   0.61992944  0.31925148  0.43041292
   0.71511951  0.38942465  0.39988440
   0.51939991  0.25834342  0.46296502
   0.41481160  0.42115518  0.71959670
Direct configuration=     5
   0.35030014  0.59556695  0.41031512
   0.45135466  0.66299297  0.37747322
   0.41231244  0.66240378  0.49722557
   0.51300246  0.72298792  0.46436656
   0.51468244  0.60813391  0.46404393
   0.57708405  0.66488053  0.37798634
   0.61566692  0.66515116  0.49718657
   0.31685537  0.59259442  0.52761640
   0.35010920  0.48884031  0.58278547
   0.41548096  0.54213826  0.49666361
   0.41276167  0.59678346  0.60406888
   0.51379319  0.66353468  0.57078215
   0.51535713  0.54310793  0.56941121
   0.61512166  0.54428791  0.49663529
   0.61631575  0.59875280  0.60407978
   0.39294082  0.59360386  0.29591646
   0.35191514  0.48912591  0.34420822
   0.45362815  0.49067040  0.27049348
   0.45375084  0.54250136  0.37928822
   0.51516845  0.59802759  0.29111497
   0.51669052  0.43855693  0.35917013
   0.57918472  0.49217864  0.27074191
   0.57734075  0.54436558  0.37942664
   0.31260905  0.48791105  0.46417624
   0.35233246  0.38144425  0.51579205
   0.41682155  0.43701344  0.43205848
   0.45480380  0.43735001  0.54922056
   0.51605520  0.49085605  0.46437218
   0.51755628  0.37345556  0.46401281
   0.61644802  0.43966690  0.43167423
   0.57810890  0.43860304  0.54948241
   0.67942467  0.59996362  0.41106944
   0.71205143  0.59668170  0.52881602
   0.68026349  0.49252043  0.58375746
   0.63711453  0.59652360  0.29648211
   0.68081614  0.49319255  0.34469929
   0.71941357  0.49314645  0.46416140
   0.68162829  0.38568385  0.51732532
   0.45448962  0.49560345  0.66075303
   0.51562115  0.59665489  0.67196416
   0.57951915  0.49179174  0.65724252
   0.39159212  0.38026070  0.62795528
   0.45523149  0.31664399  0.54902071
   0.51658894  0.38296529  0.64068767
   0.58045371  0.31823695  0.55091348
   0.63998116  0.38772289  0.63170111
   0.41602819  0.38298004  0.32373640
   0.51756646  0.38763706  0.25605848
   0.61920777  0.38576493  0.32388868
   0.31987820  0.38486573  0.39833901
   0.41633280  0.31638312  0.43051808
   0.51793402  0.31828272  0.35663053
   0.61991500  0.31933066  0.43046096
   0.71498066  0.38950268  0.39992358
   0.51941004  0.25849266  0.46295826
   0.41472793  0.42098766  0.71936063
Direct configuration=     6
   0.35036308  0.59543283  0.41034089
   0.45129645  0.66292303  0.37751916
   0.41242489  0.66233412  0.49729820
   0.51302377  0.72286931  0.46431528
   0.51470295  0.60806196  0.46387915
   0.57709964  0.66485020  0.37805090
   0.61561411  0.66508717  0.49725631
   0.31700682  0.59251418  0.52759595
   0.35037225  0.48873524  0.58259716
   0.41564021  0.54213380  0.49668622
   0.41283642  0.59685371  0.60402531
   0.51382857  0.66361053  0.57062908
   0.51548955  0.54322859  0.56934694
   0.61513825  0.54419580  0.49647470
   0.61643512  0.59881778  0.60395530
   0.39303464  0.59354711  0.29603787
   0.35196296  0.48916376  0.34423621
   0.45356592  0.49061887  0.27058906
   0.45379689  0.54242734  0.37934042
   0.51515395  0.59802623  0.29119385
   0.51671216  0.43860338  0.35923527
   0.57917744  0.49215165  0.27080609
   0.57729373  0.54433415  0.37942415
   0.31263751  0.48793397  0.46414748
   0.35229231  0.38149968  0.51544629
   0.41692339  0.43708753  0.43205326
   0.45472733  0.43724411  0.54915467
   0.51609833  0.49087728  0.46435866
   0.51760987  0.37358443  0.46397782
   0.61635918  0.43971676  0.43164417
   0.57799133  0.43864681  0.54947958
   0.67937283  0.59995079  0.41109584
   0.71195710  0.59659802  0.52872605
   0.68014844  0.49257790  0.58375185
   0.63701291  0.59646047  0.29661393
   0.68077215  0.49318865  0.34476335
   0.71937522  0.49308018  0.46421034
   0.68147943  0.38570662  0.51730906
   0.45443971  0.49564707  0.66081503
   0.51582249  0.59685466  0.67164132
   0.57952952  0.49193850  0.65718140
   0.39140725  0.38002855  0.62781961
   0.45531901  0.31665715  0.54879807
   0.51586925  0.38354494  0.64103243
   0.58028532  0.31835820  0.55104951
   0.63966152  0.38785548  0.63162871
   0.41610732  0.38298306  0.32379753
   0.51762528  0.38773151  0.25622007
   0.61917499  0.38572150  0.32394897
   0.31998807  0.38495804  0.39822185
   0.41635584  0.31635438  0.43034959
   0.51783576  0.31835478  0.35668542
   0.61989652  0.31940829  0.43052722
   0.71482944  0.38958288  0.39996492
   0.51944028  0.25865271  0.46293079
   0.41449479  0.42071442  0.71949081
Direct configuration=     7
   0.35041940  0.59530145  0.41038707
   0.45122246  0.66287464  0.37756695
   0.41252740  0.66227913  0.49736832
   0.51304634  0.72278374  0.46423725
   0.51475249  0.60799806  0.46370086
   0.57713373  0.66485153  0.37810417
   0.61556782  0.66503511  0.49732406
   0.31718225  0.59242489  0.52758632
   0.35062327  0.48861657  0.58243297
   0.41581524  0.54214231  0.49671496
   0.41293399  0.59693068  0.60400785
   0.51388227  0.66373255  0.57045468
   0.51558496  0.54329374  0.56925123
   0.61516668  0.54411158  0.49630568
   0.61660382  0.59892235  0.60381354
   0.39310554  0.59350262  0.29613572
   0.35199023  0.48919380  0.34423713
   0.45350239  0.49056715  0.27067422
   0.45384007  0.54235261  0.37937899
   0.51512954  0.59803177  0.29127171
   0.51674857  0.43865501  0.35927956
   0.57917689  0.49212956  0.27085770
   0.57723928  0.54429622  0.37939633
   0.31268009  0.48795890  0.46408782
   0.35225366  0.38150819  0.51512208
   0.41699889  0.43714635  0.43203683
   0.45467281  0.43715840  0.54908136
   0.51611851  0.49089845  0.46443650
   0.51764958  0.37368702  0.46392121
   0.61628830  0.43976351  0.43160831
   0.57781276  0.43870011  0.54949566
   0.67934197  0.59995087  0.41111279
   0.71191291  0.59652306  0.52862488
   0.68001930  0.49262608  0.58375840
   0.63692880  0.59641586  0.29671718
   0.68073965  0.49318444  0.34482776
   0.71936717  0.49300308  0.46426939
   0.68128603  0.38573074  0.51734035
   0.45427997  0.49561907  0.66098840
   0.51602275  0.59708950  0.67135102
   0.57951716  0.49215242  0.65715996
   0.39112013  0.37981800  0.62771171
   0.45533171  0.31669329  0.54861094
   0.51512221  0.38419001  0.64147933
   0.58004422  0.31850741  0.55122359
   0.63924028  0.38801466  0.63162265
   0.41617432  0.38299074  0.32382501
   0.51768597  0.38779979  0.25634774
   0.61914852  0.38565650  0.32400210
   0.32008052  0.38505542  0.39804161
   0.41638215  0.31633425  0.43015936
   0.51776087  0.31840654  0.35672376
   0.61987590  0.31946332  0.43061462
   0.71470005  0.38963799  0.40000417
   0.51948768  0.25879544  0.46289412
   0.41430633  0.42049963  0.71922940
Direct configuration=     8
   0.35045879  0.59521324  0.41042942
   0.45115183  0.66285817  0.37759586
   0.41260542  0.66225719  0.49740786
   0.51306413  0.72276638  0.46414082
   0.51482550  0.60798916  0.46355762
   0.57718455  0.66488321  0.37811888
   0.61555590  0.66501674  0.49735161
   0.31733602  0.59234715  0.52760579
   0.35078274  0.48852269  0.58234321
   0.41591851  0.54217752  0.49674229
   0.41303928  0.59698130  0.60403852
   0.51394299  0.66383499  0.57031111
   0.51561345  0.54336978  0.56931273
   0.61522507  0.54407053  0.49618686
   0.61673810  0.59902532  0.60368451
   0.39312521  0.59348322  0.29618605
   0.35198917  0.48921772  0.34419619
   0.45346295  0.49053461  0.27071948
   0.45386229  0.54228892  0.37940639
   0.51510387  0.59805238  0.29132824
   0.51678555  0.43870239  0.35932440
   0.57918965  0.49212020  0.27087417
   0.57718805  0.54425491  0.37936837
   0.31273457  0.48796656  0.46402317
   0.35221540  0.38147388  0.51488800
   0.41703601  0.43717781  0.43200886
   0.45458133  0.43706170  0.54908425
   0.51614442  0.49089095  0.46438682
   0.51765557  0.37373850  0.46384596
   0.61624236  0.43979442  0.43159463
   0.57764706  0.43872814  0.54956087
   0.67934356  0.59996063  0.41110458
   0.71194001  0.59647241  0.52852853
   0.67989223  0.49265602  0.58377150
   0.63689203  0.59640813  0.29675498
   0.68073342  0.49318398  0.34487636
   0.71939775  0.49292905  0.46431860
   0.68107890  0.38575595  0.51742561
   0.45429638  0.49603633  0.66088945
   0.51614805  0.59725264  0.67113105
   0.57945483  0.49240396  0.65719136
   0.39068366  0.37950584  0.62724849
   0.45525253  0.31674736  0.54851779
   0.51454328  0.38471839  0.64192983
   0.57976492  0.31864624  0.55140292
   0.63880280  0.38817239  0.63171578
   0.41621962  0.38300440  0.32379612
   0.51773073  0.38781914  0.25640099
   0.61913844  0.38559112  0.32403969
   0.32011641  0.38511848  0.39783450
   0.41639701  0.31632368  0.43000201
   0.51773833  0.31842691  0.35672312
   0.61986548  0.31948575  0.43071020
   0.71463350  0.38963876  0.40004388
   0.51952680  0.25887522  0.46286784
   0.41410855  0.42019805  0.71921195
Direct configuration=     9
   0.35046555  0.59519510  0.41043846
   0.45113284  0.66285370  0.37760507
   0.41262727  0.66226029  0.49741688
   0.51306978  0.72277273  0.46410630
   0.51485172  0.60797819  0.46352514
   0.57720329  0.66489390  0.37811247
   0.61556387  0.66502241  0.49735080
   0.31736970  0.59233098  0.52762532
   0.35081395  0.48850410  0.58232499
   0.41598214  0.54217849  0.49674986
   0.41304026  0.59703691  0.60403780
   0.51396681  0.66387594  0.57025938
   0.51565318  0.54336804  0.56919333
   0.61522158  0.54405134  0.49616065
   0.61677995  0.59906558  0.60364083
   0.39312592  0.59347923  0.29619877
   0.35198746  0.48922571  0.34417561
   0.45346215  0.49053014  0.27072488
   0.45384907  0.54228601  0.37939748
   0.51509837  0.59805833  0.29134482
   0.51679694  0.43869051  0.35928670
   0.57919368  0.49211599  0.27087607
   0.57719408  0.54426265  0.37933838
   0.31275434  0.48796260  0.46400203
   0.35216928  0.38145588  0.51476245
   0.41703039  0.43718091  0.43199546
   0.45458857  0.43706821  0.54903852
   0.51613211  0.49091139  0.46448514
   0.51765349  0.37374167  0.46382233
   0.61625349  0.43979269  0.43159439
   0.57756215  0.43876381  0.54956964
   0.67934520  0.59996069  0.41109345
   0.71196012  0.59645907  0.52849973
   0.67985025  0.49266477  0.58378217
   0.63688169  0.59640616  0.29676629
   0.68072938  0.49318259  0.34489149
   0.71940831  0.49290397  0.46433633
   0.68100475  0.38576318  0.51746612
   0.45410217  0.49586947  0.66109126
   0.51620672  0.59738097  0.67113308
   0.57945183  0.49248529  0.65721908
   0.39057758  0.37951006  0.62738844
   0.45522695  0.31674039  0.54846704
   0.51432739  0.38487915  0.64211235
   0.57966058  0.31868784  0.55146702
   0.63866000  0.38822335  0.63178185
   0.41623879  0.38301359  0.32377775
   0.51774450  0.38782082  0.25641019
   0.61913582  0.38557129  0.32405214
   0.32012231  0.38513457  0.39776673
   0.41639901  0.31632229  0.42995310
   0.51774072  0.31842787  0.35671392
   0.61986101  0.31948862  0.43074500
   0.71461236  0.38963212  0.40006822
   0.51952844  0.25889484  0.46287166
   0.41423706  0.42018324  0.71874906
Direct configuration=    10
   0.35046901  0.59518747  0.41044419
   0.45112616  0.66285292  0.37760725
   0.41263648  0.66225918  0.49741911
   0.51307220  0.72277555  0.46409276
   0.51486078  0.60798153  0.46350949
   0.57720923  0.66489881  0.37811111
   0.61556721  0.66502272  0.49734783
   0.31738809  0.59232119  0.52763137
   0.35082879  0.48849570  0.58232384
   0.41598873  0.54218444  0.49675513
   0.41305311  0.59704532  0.60404291
   0.51397489  0.66388546  0.57024368
   0.51565214  0.54338385  0.56921629
   0.61523123  0.54404879  0.49614905
   0.61679077  0.59907741  0.60362610
   0.39312430  0.59347916  0.29620124
   0.35198587  0.48922875  0.34416768
   0.45346086  0.49052910  0.27072510
   0.45385076  0.54227851  0.37940246
   0.51509526  0.59806165  0.29135062
   0.51680107  0.43869704  0.35929473
   0.57919605  0.49211474  0.27087530
   0.57718841  0.54425677  0.37933756
   0.31276239  0.48796192  0.46399900
   0.35216296  0.38145181  0.51473609
   0.41703530  0.43718525  0.43199021
   0.45456989  0.43705382  0.54904401
   0.51613596  0.49090707  0.46446257
   0.51765178  0.37374793  0.46381313
   0.61624639  0.43979601  0.43159734
   0.57754345  0.43876727  0.54958334
   0.67934706  0.59996096  0.41109175
   0.71196706  0.59645379  0.52848796
   0.67983296  0.49266925  0.58378522
   0.63687980  0.59640620  0.29676747
   0.68072976  0.49318052  0.34489706
   0.71941183  0.49289576  0.46434169
   0.68097669  0.38576635  0.51748199
   0.45411717  0.49595609  0.66105822
   0.51621776  0.59739927  0.67110890
   0.57943847  0.49251698  0.65722551
   0.39051687  0.37946027  0.62730220
   0.45521255  0.31674575  0.54845744
   0.51426743  0.38492800  0.64215707
   0.57962528  0.31870471  0.55148908
   0.63860568  0.38824475  0.63179996
   0.41624418  0.38301575  0.32377062
   0.51774976  0.38781925  0.25640737
   0.61913660  0.38556397  0.32405672
   0.32012416  0.38513985  0.39774018
   0.41639963  0.31632066  0.42993475
   0.51774216  0.31842780  0.35671111
   0.61986041  0.31948836  0.43075734
   0.71460850  0.38962729  0.40007638
   0.51952989  0.25890069  0.46286974
   0.41421419  0.42013925  0.71877350
Direct configuration=    11
   0.35047444  0.59517333  0.41045584
   0.45111382  0.66285040  0.37761309
   0.41265229  0.66225785  0.49742574
   0.51307590  0.72277820  0.46406981
   0.51487620  0.60798285  0.46348234
   0.57721892  0.66490599  0.37810936
   0.61557085  0.66502356  0.49734531
   0.31741891  0.59230383  0.52764603
   0.35086068  0.48848073  0.58232358
   0.41600880  0.54219088  0.49676363
   0.41307357  0.59706404  0.60405114
   0.51398979  0.66390734  0.57021502
   0.51565484  0.54340238  0.56922853
   0.61524182  0.54404319  0.49612678
   0.61681151  0.59909923  0.60359934
   0.39312390  0.59347698  0.29620956
   0.35198469  0.48923381  0.34415762
   0.45345910  0.49052635  0.27072811
   0.45385229  0.54226789  0.37940726
   0.51509084  0.59806675  0.29136128
   0.51680820  0.43870460  0.35929929
   0.57919963  0.49211255  0.27087513
   0.57718163  0.54424922  0.37933245
   0.31277758  0.48795928  0.46399654
   0.35215042  0.38144238  0.51468580
   0.41704200  0.43719118  0.43198153
   0.45454698  0.43703582  0.54904320
   0.51613922  0.49090651  0.46445087
   0.51764968  0.37375680  0.46379805
   0.61623730  0.43979934  0.43159977
   0.57750879  0.43877975  0.54959914
   0.67934837  0.59996148  0.41108811
   0.71197713  0.59644392  0.52846699
   0.67980446  0.49267816  0.58379138
   0.63687580  0.59640568  0.29677100
   0.68072883  0.49317706  0.34490652
   0.71941685  0.49288054  0.46435140
   0.68093044  0.38577137  0.51750673
   0.45410799  0.49603661  0.66105073
   0.51624123  0.59744155  0.67107633
   0.57941995  0.49256952  0.65723744
   0.39042965  0.37939700  0.62721815
   0.45519056  0.31675032  0.54843427
   0.51416222  0.38501260  0.64222954
   0.57956736  0.31873230  0.55152372
   0.63851824  0.38828051  0.63182915
   0.41625566  0.38301926  0.32376108
   0.51775920  0.38781953  0.25640796
   0.61913596  0.38555074  0.32406571
   0.32012770  0.38514971  0.39769669
   0.41640186  0.31631843  0.42990187
   0.51774352  0.31842706  0.35670596
   0.61985808  0.31948877  0.43077736
   0.71459743  0.38962152  0.40009116
   0.51953327  0.25891129  0.46286518
   0.41421169  0.42006715  0.71874921
Direct configuration=    12
   0.35048187  0.59515304  0.41047434
   0.45109463  0.66284771  0.37762162
   0.41267391  0.66225614  0.49743687
   0.51308080  0.72278331  0.46403722
   0.51489755  0.60798362  0.46344671
   0.57723249  0.66491645  0.37810576
   0.61557679  0.66502631  0.49734161
   0.31746255  0.59227823  0.52767288
   0.35090688  0.48846007  0.58233013
   0.41604165  0.54219739  0.49677547
   0.41309925  0.59709304  0.60406534
   0.51401196  0.66393856  0.57017280
   0.51566177  0.54341980  0.56922540
   0.61525202  0.54403612  0.49609596
   0.61684131  0.59912985  0.60356047
   0.39312218  0.59347384  0.29622210
   0.35198394  0.48924151  0.34414515
   0.45345616  0.49052238  0.27073167
   0.45385165  0.54225611  0.37941015
   0.51508423  0.59807323  0.29137717
   0.51681809  0.43871084  0.35929736
   0.57920382  0.49210914  0.27087483
   0.57717573  0.54424086  0.37932137
   0.31280137  0.48795331  0.46399858
   0.35213314  0.38142612  0.51461573
   0.41704867  0.43719719  0.43197022
   0.45452336  0.43701676  0.54903616
   0.51613953  0.49090911  0.46445527
   0.51764694  0.37376669  0.46377913
   0.61622811  0.43980152  0.43160147
   0.57745883  0.43880292  0.54961587
   0.67935062  0.59996355  0.41108146
   0.71199297  0.59643112  0.52843761
   0.67976647  0.49269231  0.58380067
   0.63687014  0.59640475  0.29677648
   0.68072534  0.49317229  0.34492048
   0.71942306  0.49285930  0.46436581
   0.68086763  0.38577837  0.51754011
   0.45406964  0.49609523  0.66107831
   0.51627593  0.59750617  0.67103825
   0.57939703  0.49263943  0.65725517
   0.39032390  0.37932449  0.62714910
   0.45516056  0.31675096  0.54839830
   0.51401894  0.38512512  0.64232628
   0.57948840  0.31877007  0.55156838
   0.63840212  0.38832981  0.63186964
   0.41627262  0.38302436  0.32374658
   0.51777236  0.38782063  0.25641007
   0.61913412  0.38553133  0.32407764
   0.32013720  0.38516563  0.39763989
   0.41640566  0.31631467  0.42985560
   0.51774608  0.31842705  0.35669791
   0.61985421  0.31948840  0.43080385
   0.71458014  0.38961369  0.40011270
   0.51953800  0.25892552  0.46285780
   0.41424046  0.41996974  0.71866357
Direct configuration=    13
   0.35049042  0.59512575  0.41050330
   0.45106976  0.66284474  0.37763305
   0.41270212  0.66225369  0.49745308
   0.51308731  0.72279265  0.46399348
   0.51492587  0.60798670  0.46340287
   0.57725049  0.66493055  0.37809790
   0.61558792  0.66503362  0.49733179
   0.31751993  0.59224408  0.52771631
   0.35096463  0.48843439  0.58234776
   0.41608250  0.54220768  0.49679243
   0.41313350  0.59713025  0.60408969
   0.51404223  0.66397593  0.57012034
   0.51566874  0.54344112  0.56922516
   0.61526524  0.54403116  0.49605804
   0.61687550  0.59916788  0.60350983
   0.39311635  0.59347052  0.29623896
   0.35198082  0.48925027  0.34413025
   0.45345300  0.49051875  0.27073469
   0.45384954  0.54224156  0.37941428
   0.51507593  0.59808197  0.29139758
   0.51683032  0.43871747  0.35929273
   0.57921038  0.49210591  0.27087270
   0.57716961  0.54423074  0.37930439
   0.31283393  0.48794099  0.46400895
   0.35211153  0.38140138  0.51452992
   0.41705682  0.43720243  0.43195487
   0.45449245  0.43699133  0.54902821
   0.51614095  0.49091267  0.46445673
   0.51764239  0.37377633  0.46375494
   0.61621584  0.43980211  0.43160465
   0.57739955  0.43883509  0.54963798
   0.67935586  0.59996718  0.41106938
   0.71201405  0.59641495  0.52839788
   0.67971875  0.49271190  0.58381329
   0.63686447  0.59640401  0.29678093
   0.68072233  0.49316573  0.34493749
   0.71942973  0.49283182  0.46438411
   0.68078887  0.38578704  0.51758510
   0.45403116  0.49617476  0.66111337
   0.51631836  0.59758859  0.67099776
   0.57936611  0.49272797  0.65728077
   0.39019430  0.37922245  0.62705489
   0.45511911  0.31674807  0.54835137
   0.51384403  0.38526028  0.64244496
   0.57938765  0.31881939  0.55162378
   0.63825577  0.38839526  0.63192332
   0.41629240  0.38303160  0.32372504
   0.51778953  0.38782139  0.25640990
   0.61913322  0.38550795  0.32409255
   0.32014573  0.38518255  0.39756783
   0.41640952  0.31630973  0.42979488
   0.51775187  0.31842696  0.35668573
   0.61984986  0.31948685  0.43083730
   0.71456063  0.38960028  0.40014190
   0.51954327  0.25894141  0.46284637
   0.41428201  0.41984216  0.71855734
Direct configuration=    14
   0.35049778  0.59509539  0.41053971
   0.45104201  0.66284104  0.37764616
   0.41273433  0.66225244  0.49747121
   0.51309612  0.72280630  0.46394158
   0.51496050  0.60799205  0.46335484
   0.57727163  0.66494716  0.37808404
   0.61560660  0.66504718  0.49731263
   0.31758326  0.59220702  0.52777335
   0.35102503  0.48840548  0.58237655
   0.41613208  0.54221939  0.49681459
   0.41316958  0.59717827  0.60412066
   0.51407926  0.66401689  0.57006049
   0.51567720  0.54346568  0.56921630
   0.61527817  0.54402818  0.49601632
   0.61691175  0.59921220  0.60345097
   0.39310588  0.59346818  0.29625862
   0.35197615  0.48926008  0.34411285
   0.45345232  0.49051804  0.27073534
   0.45384420  0.54222601  0.37941862
   0.51506579  0.59809213  0.29141956
   0.51684423  0.43872292  0.35928249
   0.57921892  0.49210226  0.27086768
   0.57716402  0.54421953  0.37928312
   0.31287373  0.48792388  0.46402646
   0.35208135  0.38137030  0.51442719
   0.41706536  0.43720743  0.43193475
   0.45445837  0.43696560  0.54901436
   0.51613942  0.49091669  0.46446421
   0.51763573  0.37378665  0.46372693
   0.61620362  0.43980052  0.43161024
   0.57732788  0.43887567  0.54966514
   0.67936470  0.59997034  0.41105206
   0.71204144  0.59639877  0.52835215
   0.67966423  0.49273552  0.58382946
   0.63686039  0.59640377  0.29678152
   0.68071969  0.49315634  0.34495719
   0.71943630  0.49280036  0.46440574
   0.68069716  0.38579716  0.51764229
   0.45397407  0.49625185  0.66116873
   0.51636713  0.59769203  0.67096213
   0.57933041  0.49283041  0.65731500
   0.39004328  0.37910672  0.62696564
   0.45506863  0.31673733  0.54829402
   0.51363867  0.38540985  0.64259072
   0.57926673  0.31887801  0.55169007
   0.63808426  0.38847277  0.63199432