 vasp.5.4.4.18Apr17-6-g9f103f2a35 (build Aug 09 2024 17:42:55) complex          
  
 executed on             LinuxIFC date 2025.08.28  01:39:57
 running on   64 total cores
 distrk:  each k-point on   64 cores,    1 groups
 distr:  one band on NCORES_PER_BAND=   8 cores,    8 groups


--------------------------------------------------------------------------------------------------------


 INCAR:
 POTCAR:    PAW_PBE Hf_pv 06Sep2000               
 POTCAR:    PAW_PBE C 08Apr2002                   
 POTCAR:    PAW_PBE O 08Apr2002                   
 POTCAR:    PAW_PBE Hf_pv 06Sep2000               
  local pseudopotential read in
  partial core-charges read in
  partial kinetic energy density read in
  atomic valenz-charges read in
  non local Contribution for L=           1  read in
    real space projection operators read in
  non local Contribution for L=           1  read in
    real space projection operators read in
  non local Contribution for L=           2  read in
    real space projection operators read in
  non local Contribution for L=           2  read in
    real space projection operators read in
  non local Contribution for L=           0  read in
    real space projection operators read in
  non local Contribution for L=           0  read in
    real space projection operators read in
    PAW grid and wavefunctions read in
 
   number of l-projection  operators is LMAX  =           6
   number of lm-projection operators is LMMAX =          18
 
 POTCAR:    PAW_PBE C 08Apr2002                   
  local pseudopotential read in
  partial core-charges read in
  partial kinetic energy density read in
  atomic valenz-charges read in
  non local Contribution for L=           0  read in
    real space projection operators read in
  non local Contribution for L=           0  read in
    real space projection operators read in
  non local Contribution for L=           1  read in
    real space projection operators read in
  non local Contribution for L=           1  read in
    real space projection operators read in
    PAW grid and wavefunctions read in
 
   number of l-projection  operators is LMAX  =           4
   number of lm-projection operators is LMMAX =           8
 
 POTCAR:    PAW_PBE O 08Apr2002                   
  local pseudopotential read in
  partial core-charges read in
  partial kinetic energy density read in
  kinetic energy density of atom read in
  atomic valenz-charges read in
  non local Contribution for L=           0  read in
    real space projection operators read in
  non local Contribution for L=           0  read in
    real space projection operators read in
  non local Contribution for L=           1  read in
    real space projection operators read in
  non local Contribution for L=           1  read in
    real space projection operators read in
    PAW grid and wavefunctions read in
 
   number of l-projection  operators is LMAX  =           4
   number of lm-projection operators is LMMAX =           8
 
 Optimization of the real space projectors (new method)

 maximal supplied QI-value         = 14.36
 optimisation between [QCUT,QGAM] = [ 11.63, 23.27] = [ 37.90,151.59] Ry 
 Optimized for a Real-space Cutoff    1.45 Angstroem

   l    n(q)    QCUT    max X(q) W(low)/X(q) W(high)/X(q)  e(spline) 
   1     10    11.633    53.935    0.15E-03    0.23E-03    0.11E-06
   1     10    11.633    55.378    0.15E-03    0.24E-03    0.11E-06
   2      9    11.633    48.043    0.29E-03    0.12E-02    0.16E-05
   2      9    11.633    39.488    0.28E-03    0.11E-02    0.15E-05
   0     10    11.633   121.653    0.35E-03    0.21E-03    0.94E-06
   0     10    11.633    66.520    0.32E-03    0.19E-03    0.85E-06
 Optimization of the real space projectors (new method)

 maximal supplied QI-value         = 25.13
 optimisation between [QCUT,QGAM] = [ 11.56, 23.12] = [ 37.43,149.72] Ry 
 Optimized for a Real-space Cutoff    1.04 Angstroem

   l    n(q)    QCUT    max X(q) W(low)/X(q) W(high)/X(q)  e(spline) 
   0      7    11.561   115.676    0.20E-03    0.60E-03    0.21E-06
   0      7    11.561    87.132    0.20E-03    0.59E-03    0.21E-06
   1      7    11.561     4.429    0.23E-03    0.35E-03    0.15E-06
   1      7    11.561     2.733    0.18E-03    0.25E-03    0.12E-06
 Optimization of the real space projectors (new method)

 maximal supplied QI-value         = 24.76
 optimisation between [QCUT,QGAM] = [ 11.64, 23.27] = [ 37.91,151.63] Ry 
 Optimized for a Real-space Cutoff    1.04 Angstroem

   l    n(q)    QCUT    max X(q) W(low)/X(q) W(high)/X(q)  e(spline) 
   0      7    11.635    20.381    0.14E-03    0.49E-03    0.18E-06
   0      7    11.635    15.268    0.16E-03    0.52E-03    0.19E-06
   1      7    11.635     5.964    0.30E-03    0.44E-03    0.22E-06
   1      7    11.635     5.382    0.27E-03    0.34E-03    0.19E-06
  PAW_PBE Hf_pv 06Sep2000               :
 energy of atom  1       EATOM= -860.9206
 kinetic energy error for atom=    0.0012 (will be added to EATOM!!)
  PAW_PBE C 08Apr2002                   :
 energy of atom  2       EATOM= -147.1560
 kinetic energy error for atom=    0.0071 (will be added to EATOM!!)
  PAW_PBE O 08Apr2002                   :
 energy of atom  3       EATOM= -432.3788
 kinetic energy error for atom=    0.0208 (will be added to EATOM!!)
 
 
 POSCAR: hfc_1o_final                            
  positions in direct lattice
  No initial velocities read in
 exchange correlation table for  LEXCH =        8
   RHO(1)=    0.500       N(1)  =     2000
   RHO(2)=  100.500       N(2)  =     4000

 VTST: version 3.2, (02/03/18)

 CHAIN: initializing optimizer
 
 OPT: Using VASP Conjugate-Gradient optimizer
 CHAIN: Read ICHAIN            0
 
 POSCAR: hfc_1o_final                            
  positions in direct lattice
  No initial velocities read in
 


--------------------------------------------------------------------------------------------------------


 ion  position               nearest neighbor table
   1  0.001  0.999  0.313-  38 2.22  52 2.31  35 2.31  43 2.33  36 2.33   8 3.23  23 3.23  10 3.24
                            16 3.24   7 3.25  18 3.26   2 3.28  26 3.28
   2  0.249  0.250  0.315-  37 2.27  36 2.30  35 2.32  44 2.38  51 2.39  15 3.25   7 3.25  24 3.26
                             8 3.27   1 3.28  17 3.28  25 3.31   9 3.35
   3  0.000  0.250  0.000-  40 2.32  34 2.32  33 2.32  41 2.32  50 2.32   6 3.29  14 3.29  21 3.29
                             5 3.29  20 3.29  12 3.29  28 3.29   4 3.29
   4  0.250  0.000  0.000-  39 2.32  34 2.32  33 2.32  42 2.32  49 2.32   6 3.29  13 3.29  22 3.29
                             5 3.29  19 3.29  11 3.29  27 3.29   3 3.29
   5  0.000  0.000  0.106-  38 2.32  34 2.32  39 2.32  40 2.32  47 2.32  56 2.32  23 3.26   7 3.26
                            16 3.26   8 3.26  19 3.29   4 3.29  12 3.29   3 3.29   6 3.29  30 3.29
   6  0.250  0.250  0.106-  37 2.32  33 2.32  39 2.32  40 2.32  48 2.32  55 2.32   7 3.25   8 3.27
                            24 3.27  15 3.27  20 3.29   4 3.29  11 3.29   3 3.29   5 3.29  29 3.29
   7  0.001  0.250  0.210-  40 2.28  37 2.31  54 2.32  38 2.32  45 2.34  36 2.36  10 3.19  17 3.25
                             6 3.25   1 3.25   2 3.25   5 3.26  21 3.26  14 3.27  24 3.28   8 3.28
   8  0.250  1.000  0.210-  39 2.29  53 2.32  38 2.32  37 2.32  46 2.33  35 2.34  18 3.23   1 3.23
                             9 3.24  22 3.26  13 3.26   5 3.26   6 3.27   2 3.27   7 3.28  23 3.29
   9  0.501  0.992  0.312-  46 2.20  60 2.26  43 2.32  35 2.34  44 2.37  31 3.19  16 3.23   8 3.24
                            26 3.24  18 3.25  15 3.28   2 3.35  10 3.38
  10  0.758  0.249  0.312-  45 2.20  36 2.26  43 2.32  44 2.37   7 3.19  16 3.23  32 3.24   1 3.24
                            17 3.25  15 3.28  25 3.36   9 3.38
  11  0.500  0.250  0.000-  48 2.32  41 2.32  42 2.32  33 2.32  58 2.32  13 3.29  14 3.29  29 3.29
                             6 3.29  20 3.29  28 3.29   4 3.29  12 3.29
  12  0.750  0.000  0.000-  47 2.32  41 2.32  42 2.32  34 2.32  57 2.32  13 3.29  14 3.29  30 3.29
                             5 3.29  19 3.29  27 3.29   3 3.29  11 3.29
  13  0.500  0.000  0.106-  42 2.32  39 2.32  47 2.32  48 2.32  64 2.32  46 2.34   8 3.26  16 3.27
                            31 3.27  27 3.29  11 3.29  12 3.29   4 3.29  30 3.29   6 3.29  22 3.29
  14  0.750  0.250  0.106-  41 2.32  40 2.32  47 2.32  48 2.32  63 2.32  45 2.34  32 3.26  16 3.27
                             7 3.27  28 3.29  11 3.29  12 3.29   3 3.29  29 3.29   5 3.29  21 3.29
  15  0.498  0.251  0.211-  62 2.31  37 2.31  48 2.32  45 2.34  46 2.34  44 2.37  25 3.25   2 3.25
                            24 3.26   6 3.27  29 3.27   9 3.28  10 3.28  32 3.29   8 3.29  13 3.29
  16  0.750  1.000  0.210-  47 2.29  45 2.32  46 2.32  61 2.33  38 2.33  43 2.34  10 3.23   9 3.23
                            26 3.24   1 3.24  30 3.26   5 3.26  13 3.27  14 3.27  23 3.28  31 3.30
  17  0.000  0.501  0.312-  54 2.23  51 2.26  52 2.32  36 2.34  24 3.23  23 3.23  32 3.23   7 3.25
                            10 3.25  18 3.27  26 3.27   2 3.28
  18  0.249  0.750  0.312-  53 2.23  51 2.26  52 2.32  35 2.33  60 2.34  24 3.23   8 3.23  23 3.23
                            31 3.24   9 3.25   1 3.26  17 3.27  25 3.28
  19  0.000  0.750  0.000-  56 2.32  49 2.32  50 2.32  34 2.32  57 2.32  21 3.29  22 3.29  30 3.29
                             5 3.29  12 3.29  28 3.29  20 3.29   4 3.29
  20  0.250  0.500  0.000-  55 2.32  49 2.32  50 2.32  33 2.32  58 2.32  21 3.29  22 3.29  29 3.29
                             6 3.29  11 3.29  27 3.29  19 3.29   3 3.29
  21  0.000  0.500  0.106-  54 2.31  50 2.32  40 2.32  55 2.32  56 2.32  63 2.32  23 3.26   7 3.26
                            32 3.26  24 3.27  28 3.29  20 3.29   3 3.29  19 3.29  30 3.29   6 3.29
  22  0.250  0.750  0.106-  53 2.31  49 2.32  39 2.32  55 2.32  56 2.32  64 2.32  31 3.26  23 3.26
                             8 3.26  24 3.27  27 3.29  20 3.29   4 3.29  19 3.29  29 3.29   5 3.29
  23  1.000  0.750  0.210-  56 2.28  61 2.32  38 2.32  54 2.33  53 2.33  52 2.35  17 3.23  18 3.23
                             1 3.23  26 3.23  30 3.25   5 3.26  21 3.26  22 3.26  16 3.28  32 3.28
  24  0.250  0.499  0.210-  51 2.28  55 2.30  37 2.32  62 2.32  54 2.33  53 2.33  18 3.23  17 3.23
                            25 3.26   2 3.26  15 3.26   6 3.27  29 3.27  21 3.27  22 3.27   7 3.28
  25  0.500  0.501  0.314-  62 2.27  60 2.30  44 2.38  51 2.38  15 3.25  31 3.25  24 3.26  32 3.27
                            26 3.28  18 3.28   2 3.31  10 3.36
  26  0.751  0.749  0.313-  61 2.22  52 2.31  43 2.33  60 2.33  32 3.23  23 3.23   9 3.24  16 3.24
                            31 3.25  17 3.27  25 3.28   1 3.28
  27  0.500  0.750  0.000-  64 2.32  49 2.32  57 2.32  58 2.32  42 2.32  22 3.29  29 3.29  30 3.29
                            13 3.29  28 3.29   4 3.29  20 3.29  12 3.29
  28  0.750  0.500  0.000-  63 2.32  50 2.32  57 2.32  58 2.32  41 2.32  21 3.29  29 3.29  30 3.29
                            14 3.29  27 3.29   3 3.29  19 3.29  11 3.29
  29  0.500  0.500  0.106-  62 2.31  58 2.32  48 2.32  55 2.32  63 2.32  64 2.32  31 3.25  32 3.27
                            24 3.27  15 3.27  20 3.29  11 3.29  27 3.29  28 3.29   6 3.29  14 3.29
  30  0.750  0.750  0.106-  61 2.32  57 2.32  47 2.32  56 2.32  63 2.32  64 2.32  23 3.25  31 3.26
                            16 3.26  32 3.27  19 3.29  12 3.29  27 3.29  28 3.29   5 3.29  13 3.29
  31  0.500  0.748  0.210-  64 2.28  62 2.31  53 2.32  61 2.32  46 2.34  60 2.36   9 3.19  18 3.24
                            29 3.25  26 3.25  25 3.25  30 3.26  22 3.26  13 3.27  24 3.28  32 3.28
  32  0.750  0.500  0.210-  63 2.29  54 2.32  61 2.32  62 2.32  45 2.33  26 3.23  17 3.23  10 3.24
                            14 3.26  21 3.26  29 3.27  30 3.27  25 3.27  31 3.28  23 3.28  15 3.29
  33  0.250  0.250  0.000-   6 2.32   4 2.32   3 2.32  11 2.32  20 2.32
  34  0.000  0.000  0.000-   5 2.32   4 2.32   3 2.32  12 2.32  19 2.32
  35  0.249  0.000  0.317-   1 2.31   2 2.32  18 2.33   9 2.34   8 2.34
  36  0.002  0.249  0.317-  10 2.26   2 2.30   1 2.33  17 2.34   7 2.36
  37  0.250  0.249  0.211-   2 2.27   7 2.31  15 2.31   6 2.32   8 2.32  24 2.32
  38  0.001  1.000  0.211-   1 2.22   8 2.32   5 2.32  23 2.32   7 2.32  16 2.33
  39  0.250  0.000  0.106-   8 2.29   4 2.32   6 2.32   5 2.32  13 2.32  22 2.32
  40  0.000  0.250  0.106-   7 2.28   3 2.32   6 2.32   5 2.32  14 2.32  21 2.32
  41  0.750  0.250  0.000-  14 2.32  11 2.32  12 2.32   3 2.32  28 2.32
  42  0.500  0.000  0.000-  13 2.32  11 2.32  12 2.32   4 2.32  27 2.32
  43  0.751  0.999  0.317-  10 2.32   9 2.32  26 2.33   1 2.33  16 2.34
  44  0.504  0.246  0.319-   9 2.37  10 2.37  15 2.37   2 2.38  25 2.38
  45  0.750  0.250  0.212-  10 2.20  16 2.32  32 2.33  14 2.34  15 2.34   7 2.34
  46  0.500  0.000  0.212-   9 2.20  16 2.32   8 2.33  13 2.34  15 2.34  31 2.34
  47  0.750  0.000  0.106-  16 2.29  12 2.32  13 2.32  14 2.32   5 2.32  30 2.32
  48  0.500  0.250  0.106-  15 2.32  11 2.32  13 2.32  14 2.32   6 2.32  29 2.32
  49  0.250  0.750  0.000-  22 2.32  19 2.32  20 2.32   4 2.32  27 2.32
  50  0.000  0.500  0.000-  21 2.32  19 2.32  20 2.32   3 2.32  28 2.32
  51  0.244  0.506  0.314-  18 2.26  17 2.26  24 2.28  25 2.38   2 2.39
  52  0.999  0.750  0.316-   1 2.31  26 2.31  17 2.32  18 2.32  23 2.35
  53  0.250  0.750  0.211-  18 2.23  22 2.31   8 2.32  31 2.32  23 2.33  24 2.33
  54  1.000  0.500  0.211-  17 2.23  21 2.31  32 2.32   7 2.32  23 2.33  24 2.33
  55  0.250  0.500  0.106-  24 2.30  20 2.32  21 2.32  22 2.32   6 2.32  29 2.32
  56  0.000  0.750  0.106-  23 2.28  19 2.32  21 2.32  22 2.32   5 2.32  30 2.32
  57  0.750  0.750  0.000-  30 2.32  19 2.32  27 2.32  28 2.32  12 2.32
  58  0.500  0.500  0.000-  29 2.32  20 2.32  27 2.32  28 2.32  11 2.32
  59  0.744  0.582  0.573-  65 1.58
  60  0.500  0.748  0.317-   9 2.26  25 2.30  26 2.33  18 2.34  31 2.36
  61  0.750  0.749  0.211-  26 2.22  32 2.32  23 2.32  30 2.32  31 2.32  16 2.33
  62  0.500  0.500  0.211-  25 2.27  31 2.31  15 2.31  29 2.31  32 2.32  24 2.32
  63  0.750  0.500  0.106-  32 2.29  28 2.32  14 2.32  29 2.32  30 2.32  21 2.32
  64  0.500  0.750  0.106-  31 2.28  27 2.32  13 2.32  29 2.32  30 2.32  22 2.32
  65  0.658  0.509  0.627-  59 1.58
 
  LATTYP: Found a simple tetragonal cell.
 ALAT       =     9.2947998047
 C/A-ratio  =     2.3638056026
  
  Lattice vectors:
  
 A1 = (   9.2947998047,   0.0000000000,   0.0000000000)
 A2 = (   0.0000000000,   9.2947998047,   0.0000000000)
 A3 = (   0.0000000000,   0.0000000000,  21.9710998535)


Analysis of symmetry for initial positions (statically):
=====================================================================
 Subroutine PRICEL returns:
 Original cell was already a primitive cell.
 

 Routine SETGRP: Setting up the symmetry group for a 
 simple tetragonal supercell.


 Subroutine GETGRP returns: Found  1 space group operations
 (whereof  1 operations were pure point group operations)
 out of a pool of 16 trial point group operations.


The static configuration has the point symmetry C_1 .


Analysis of symmetry for dynamics (positions and initial velocities):
=====================================================================
 Subroutine PRICEL returns:
 Original cell was already a primitive cell.
 

 Routine SETGRP: Setting up the symmetry group for a 
 simple tetragonal supercell.


 Subroutine GETGRP returns: Found  1 space group operations
 (whereof  1 operations were pure point group operations)
 out of a pool of 16 trial point group operations.


The dynamic configuration has the point symmetry C_1 .


Analysis of constrained symmetry for selective dynamics:
=====================================================================
 Subroutine PRICEL returns:
 Original cell was already a primitive cell.
 

 Routine SETGRP: Setting up the symmetry group for a 
 simple tetragonal supercell.


 Subroutine GETGRP returns: Found  1 space group operations
 (whereof  1 operations were pure point group operations)
 out of a pool of 16 trial point group operations.


The constrained configuration has the point symmetry C_1 .


 Subroutine INISYM returns: Found  1 space group operations
 (whereof  1 operations are pure point group operations),
 and found     1 'primitive' translations

 
 
 KPOINTS: KP                                      

Automatic generation of k-mesh.
Space group operators:
 irot       det(A)        alpha          n_x          n_y          n_z        tau_x        tau_y        tau_z
    1     1.000000     0.000000     1.000000     0.000000     0.000000     0.000000     0.000000     0.000000
 
 Subroutine IBZKPT returns following result:
 ===========================================
 
 Found      8 irreducible k-points:
 
 Following reciprocal coordinates:
            Coordinates               Weight
  0.125000  0.125000  0.000000      2.000000
  0.375000  0.125000  0.000000      2.000000
 -0.375000  0.125000  0.000000      2.000000
 -0.125000  0.125000  0.000000      2.000000
  0.125000  0.375000  0.000000      2.000000
  0.375000  0.375000  0.000000      2.000000
 -0.375000  0.375000  0.000000      2.000000
 -0.125000  0.375000  0.000000      2.000000
 
 Following cartesian coordinates:
            Coordinates               Weight
  0.013448  0.013448  0.000000      2.000000
  0.040345  0.013448  0.000000      2.000000
 -0.040345  0.013448  0.000000      2.000000
 -0.013448  0.013448  0.000000      2.000000
  0.013448  0.040345  0.000000      2.000000
  0.040345  0.040345  0.000000      2.000000
 -0.040345  0.040345  0.000000      2.000000
 -0.013448  0.040345  0.000000      2.000000
 


--------------------------------------------------------------------------------------------------------




 Dimension of arrays:
   k-points           NKPTS =      8   k-points in BZ     NKDIM =      8   number of bands    NBANDS=    272
   number of dos      NEDOS =    301   number of ions     NIONS =     65
   non local maximal  LDIM  =      6   non local SUM 2l+1 LMDIM =     18
   total plane-waves  NPLWV = 367416
   max r-space proj   IRMAX =   2500   max aug-charges    IRDMAX=  10925
   dimension x,y,z NGX =    54 NGY =   54 NGZ =  126
   dimension x,y,z NGXF=   108 NGYF=  108 NGZF=  252
   support grid    NGXF=   108 NGYF=  108 NGZF=  252
   ions per type =              32  32   1
   NGX,Y,Z   is equivalent  to a cutoff of   9.66,  9.66,  9.53 a.u.
   NGXF,Y,Z  is equivalent  to a cutoff of  19.32, 19.32, 19.07 a.u.

 SYSTEM =  ZrC (100)                               
 POSCAR =  hfc_1o_final                            

 Startparameter for this run:
   NWRITE =      0    write-flag & timer
   PREC   = normal    normal or accurate (medium, high low for compatibility)
   ISTART =      0    job   : 0-new  1-cont  2-samecut
   ICHARG =      2    charge: 1-file 2-atom 10-const
   ISPIN  =      1    spin polarized calculation?
   LNONCOLLINEAR =      F non collinear calculations
   LSORBIT =      F    spin-orbit coupling
   INIWAV =      1    electr: 0-lowe 1-rand  2-diag
   LASPH  =      F    aspherical Exc in radial PAW
   METAGGA=      F    non-selfconsistent MetaGGA calc.

 Electronic Relaxation 1
   ENCUT  =  520.0 eV  38.22 Ry    6.18 a.u.  17.28 17.28 40.85*2*pi/ulx,y,z
   ENINI  =  520.0     initial cutoff
   ENAUG  =  644.9 eV  augmentation charge cutoff
   NELM   =    150;   NELMIN=  2; NELMDL= -5     # of ELM steps 
   EDIFF  = 0.1E-08   stopping-criterion for ELM
   LREAL  =      T    real-space projection
   NLSPLINE    = F    spline interpolate recip. space projectors
   LCOMPAT=      F    compatible to vasp.4.4
   GGA_COMPAT  = T    GGA compatible to vasp.4.4-vasp.4.6
   LMAXPAW     = -100 max onsite density
   LMAXMIX     =    2 max onsite mixed and CHGCAR
   VOSKOWN=      0    Vosko Wilk Nusair interpolation
   ROPT   =   -0.00050  -0.00050  -0.00050
 Ionic relaxation
   EDIFFG = -.1E-01   stopping-criterion for IOM
   NSW    =    100    number of steps for IOM
   NBLOCK =      1;   KBLOCK =    100    inner block; outer block 
   IBRION =      2    ionic relax: 0-MD 1-quasi-New 2-CG
   NFREE  =      1    steps in history (QN), initial steepest desc. (CG)
   ISIF   =      2    stress and relaxation
   IWAVPR =     11    prediction:  0-non 1-charg 2-wave 3-comb
   ISYM   =      2    0-nonsym 1-usesym 2-fastsym
   LCORR  =      T    Harris-Foulkes like correction to forces

   POTIM  = 0.5000    time-step for ionic-motion
   TEIN   =    0.0    initial temperature
   TEBEG  =    0.0;   TEEND  =   0.0 temperature during run
   SMASS  =  -3.00    Nose mass-parameter (am)
   estimated Nose-frequenzy (Omega)   =  0.10E-29 period in steps =****** mass=  -0.197E-26a.u.
   SCALEE = 1.0000    scale energy and forces
   NPACO  =    256;   APACO  = 16.0  distance and # of slots for P.C.
   PSTRESS=    0.0 pullay stress

  Mass of Ions in am
   POMASS = 178.49 12.01 16.00
  Ionic Valenz
   ZVAL   =  10.00  4.00  6.00
  Atomic Wigner-Seitz radii
   RWIGS  =  -1.00 -1.00 -1.00
  virtual crystal weights 
   VCA    =   1.00  1.00  1.00
   NELECT =     454.0000    total number of electrons
   NUPDOWN=      -1.0000    fix difference up-down

 DOS related values:
   EMIN   =  10.00;   EMAX   =-10.00  energy-range for DOS
   EFERMI =   0.00
   ISMEAR =     0;   SIGMA  =   0.05  broadening in eV -4-tet -1-fermi 0-gaus

 Electronic relaxation 2 (details)
   IALGO  =     38    algorithm
   LDIAG  =      T    sub-space diagonalisation (order eigenvalues)
   LSUBROT=      F    optimize rotation matrix (better conditioning)
   TURBO    =      0    0=normal 1=particle mesh
   IRESTART =      0    0=no restart 2=restart with 2 vectors
   NREBOOT  =      0    no. of reboots
   NMIN     =      0    reboot dimension
   EREF     =   0.00    reference energy to select bands
   IMIX   =      4    mixing-type and parameters
     AMIX     =   0.40;   BMIX     =  1.00
     AMIX_MAG =   1.60;   BMIX_MAG =  1.00
     AMIN     =   0.10
     WC   =   100.;   INIMIX=   1;  MIXPRE=   1;  MAXMIX= -45

 Intra band minimization:
   WEIMIN = 0.0010     energy-eigenvalue tresh-hold
   EBREAK =  0.92E-12  absolut break condition
   DEPER  =   0.30     relativ break condition  

   TIME   =   0.40     timestep for ELM

  volume/ion in A,a.u.               =      29.20       197.07
  Fermi-wavevector in a.u.,A,eV,Ry     =   1.016208  1.920356 14.050460  1.032680
  Thomas-Fermi vector in A             =   2.149539
 
 Write flags
   LWAVE        =      F    write WAVECAR
   LDOWNSAMPLE  =      F    k-point downsampling of WAVECAR
   LCHARG       =      F    write CHGCAR
   LVTOT        =      F    write LOCPOT, total local potential
   LVHAR        =      F    write LOCPOT, Hartree potential only
   LELF         =      F    write electronic localiz. function (ELF)
   LORBIT       =      0    0 simple, 1 ext, 2 COOP (PROOUT), +10 PAW based schemes


 Dipole corrections
   LMONO  =      F    monopole corrections only (constant potential shift)
   LDIPOL =      F    correct potential (dipole corrections)
   IDIPOL =      0    1-x, 2-y, 3-z, 4-all directions 
   EPSILON=  1.0000000 bulk dielectric constant

 Exchange correlation treatment:
   GGA     =    PE    GGA type
   LEXCH   =     8    internal setting for exchange type
   VOSKOWN=      0    Vosko Wilk Nusair interpolation
   LHFCALC =     F    Hartree Fock is set to
   LHFONE  =     F    Hartree Fock one center treatment
   AEXX    =    0.0000 exact exchange contribution

 Linear response parameters
   LEPSILON=     F    determine dielectric tensor
   LRPA    =     F    only Hartree local field effects (RPA)
   LNABLA  =     F    use nabla operator in PAW spheres
   LVEL    =     F    velocity operator in full k-point grid
   LINTERFAST=   F  fast interpolation
   KINTER  =     0    interpolate to denser k-point grid
   CSHIFT  =0.1000    complex shift for real part using Kramers Kronig
   OMEGAMAX=  -1.0    maximum frequency
   DEG_THRESHOLD= 0.2000000E-02 threshold for treating states as degnerate
   RTIME   =   -0.100 relaxation time in fs
  (WPLASMAI=    0.000 imaginary part of plasma frequency in eV, 0.658/RTIME)
   DFIELD  = 0.0000000 0.0000000 0.0000000 field for delta impulse in time
 
 Orbital magnetization related:
   ORBITALMAG=     F  switch on orbital magnetization
   LCHIMAG   =     F  perturbation theory with respect to B field
   DQ        =  0.001000  dq finite difference perturbation B field
   LLRAUG    =     F  two centre corrections for induced B field



--------------------------------------------------------------------------------------------------------


 conjugate gradient relaxation of ions
   using selective dynamics as specified on POSCAR
 charge density and potential will be updated during run
 non-spin polarized calculation
 Variant of blocked Davidson
 Davidson routine will perform the subspace rotation
 perform sub-space diagonalisation
    after iterative eigenvector-optimisation
 modified Broyden-mixing scheme, WC =      100.0
 initial mixing is a Kerker type mixing with AMIX =  0.4000 and BMIX =      1.0000
 Hartree-type preconditioning will be used
 using additional bands           45
 real space projection scheme for non local part
 use partial core corrections
 calculate Harris-corrections to forces 
   (improved forces if not selfconsistent)
 use gradient corrections 
 use of overlap-Matrix (Vanderbilt PP)
 Gauss-broadening in eV      SIGMA  =   0.05


--------------------------------------------------------------------------------------------------------


  energy-cutoff  :      520.00
  volume of cell :     1898.16
      direct lattice vectors                 reciprocal lattice vectors
     9.294799805  0.000000000  0.000000000     0.107587040  0.000000000  0.000000000
     0.000000000  9.294799805  0.000000000     0.000000000  0.107587040  0.000000000
     0.000000000  0.000000000 21.971099854     0.000000000  0.000000000  0.045514335

  length of vectors
     9.294799805  9.294799805 21.971099854     0.107587040  0.107587040  0.045514335


 
 k-points in units of 2pi/SCALE and weight: KP                                      
   0.01344838  0.01344838  0.00000000       0.125
   0.04034514  0.01344838  0.00000000       0.125
  -0.04034514  0.01344838  0.00000000       0.125
  -0.01344838  0.01344838  0.00000000       0.125
   0.01344838  0.04034514  0.00000000       0.125
   0.04034514  0.04034514  0.00000000       0.125
  -0.04034514  0.04034514  0.00000000       0.125
  -0.01344838  0.04034514  0.00000000       0.125
 
 k-points in reciprocal lattice and weights: KP                                      
   0.12500000  0.12500000  0.00000000       0.125
   0.37500000  0.12500000  0.00000000       0.125
  -0.37500000  0.12500000  0.00000000       0.125
  -0.12500000  0.12500000  0.00000000       0.125
   0.12500000  0.37500000  0.00000000       0.125
   0.37500000  0.37500000  0.00000000       0.125
  -0.37500000  0.37500000  0.00000000       0.125
  -0.12500000  0.37500000  0.00000000       0.125
 
 position of ions in fractional coordinates (direct lattice) 
   0.00101000  0.99858000  0.31263000
   0.24867000  0.24982000  0.31454000
   0.00000000  0.25000000  0.00000000
   0.25000000  0.00000000  0.00000000
   0.00000000  0.00000000  0.10576000
   0.25000000  0.25000000  0.10576000
   0.00141000  0.24986000  0.20968000
   0.25003000  0.99967000  0.21004000
   0.50084000  0.99164000  0.31226000
   0.75831000  0.24897000  0.31228000
   0.50000000  0.25000000  0.00000000
   0.75000000  0.00000000  0.00000000
   0.50000000  0.00000000  0.10576000
   0.75000000  0.25000000  0.10576000
   0.49843000  0.25147000  0.21118000
   0.75032000  0.99954000  0.21003000
   0.00031000  0.50113000  0.31225000
   0.24882000  0.74966000  0.31219000
   0.00000000  0.75000000  0.00000000
   0.25000000  0.50000000  0.00000000
   0.00000000  0.50000000  0.10576000
   0.25000000  0.75000000  0.10576000
   0.99974000  0.75004000  0.20961000
   0.25045000  0.49940000  0.21047000
   0.50002000  0.50137000  0.31447000
   0.75113000  0.74900000  0.31261000
   0.50000000  0.75000000  0.00000000
   0.75000000  0.50000000  0.00000000
   0.50000000  0.50000000  0.10576000
   0.75000000  0.75000000  0.10576000
   0.50005000  0.74844000  0.20966000
   0.75017000  0.49981000  0.21008000
   0.25000000  0.25000000  0.00000000
   0.00000000  0.00000000  0.00000000
   0.24942000  0.00048000  0.31666000
   0.00151000  0.24946000  0.31700000
   0.24971000  0.24942000  0.21117000
   0.00050000  0.99978000  0.21138000
   0.25000000  0.00000000  0.10576000
   0.00000000  0.25000000  0.10576000
   0.75000000  0.25000000  0.00000000
   0.50000000  0.00000000  0.00000000
   0.75054000  0.99933000  0.31657000
   0.50431000  0.24560000  0.31903000
   0.74986000  0.24954000  0.21206000
   0.50029000  0.00003000  0.21207000
   0.75000000  0.00000000  0.10576000
   0.50000000  0.25000000  0.10576000
   0.25000000  0.75000000  0.00000000
   0.00000000  0.50000000  0.00000000
   0.24363000  0.50639000  0.31397000
   0.99945000  0.75040000  0.31648000
   0.25007000  0.75029000  0.21091000
   0.99963000  0.49982000  0.21093000
   0.25000000  0.50000000  0.10576000
   0.00000000  0.75000000  0.10576000
   0.75000000  0.75000000  0.00000000
   0.50000000  0.50000000  0.00000000
   0.74419000  0.58217000  0.57334000
   0.50039000  0.74842000  0.31694000
   0.75013000  0.74941000  0.21138000
   0.50046000  0.50018000  0.21112000
   0.75000000  0.50000000  0.10576000
   0.50000000  0.75000000  0.10576000
   0.65790000  0.50854000  0.62665000
 
 position of ions in cartesian coordinates  (Angst):
   0.00938775  9.28160119  6.86882495
   2.31133787  2.32202689  6.91078975
   0.00000000  2.32369995  0.00000000
   2.32369995  0.00000000  0.00000000
   0.00000000  0.00000000  2.32366352
   2.32369995  2.32369995  2.32366352
   0.01310567  2.32239868  4.60690022
   2.32397880  9.29173252  4.61480981
   4.65520753  9.21709528  6.86069564
   7.04833964  2.31412631  6.86113506
   4.64739990  2.32369995  0.00000000
   6.97109985  0.00000000  0.00000000
   4.64739990  0.00000000  2.32366352
   6.97109985  2.32369995  2.32366352
   4.63280707  2.33736331  4.63985687
   6.97407419  9.29052420  4.61459010
   0.00288139  4.65790303  6.86047593
   2.31273209  6.96793962  6.85915766
   0.00000000  6.97109985  0.00000000
   2.32369995  4.64739990  0.00000000
   0.00000000  4.64739990  2.32366352
   2.32369995  6.97109985  2.32366352
   9.29238316  6.97147165  4.60536224
   2.32788261  4.64182302  4.62425739
   4.64758580  4.66013378  6.90925177
   6.98160298  6.96180505  6.86838553
   4.64739990  6.97109985  0.00000000
   6.97109985  4.64739990  0.00000000
   4.64739990  4.64739990  2.32366352
   6.97109985  6.97109985  2.32366352
   4.64786464  6.95659997  4.60646080
   6.97267997  4.64563389  4.61568866
   2.32369995  2.32369995  0.00000000
   0.00000000  0.00000000  0.00000000
   2.31830897  0.00446150  6.95736848
   0.01403515  2.31868076  6.96483865
   2.32100446  2.31830897  4.63963716
   0.00464740  9.29275495  4.64425109
   2.32369995  0.00000000  2.32366352
   0.00000000  2.32369995  2.32366352
   6.97109985  2.32369995  0.00000000
   4.64739990  0.00000000  0.00000000
   6.97611905  9.28857229  6.95539108
   4.68746049  2.28280283  7.00943999
   6.96979858  2.31942434  4.65919143
   4.65009539  0.00027884  4.65941115
   6.97109985  0.00000000  2.32366352
   4.64739990  2.32369995  2.32366352
   2.32369995  6.97109985  0.00000000
   0.00000000  4.64739990  0.00000000
   2.26449208  4.70679367  6.89826622
   9.28968766  6.97481777  6.95341368
   2.32435059  6.97379535  4.63392467
   9.29136073  4.64572684  4.63436409
   2.32369995  4.64739990  2.32366352
   0.00000000  6.97109985  2.32366352
   6.97109985  6.97109985  0.00000000
   4.64739990  4.64739990  0.00000000
   6.91709707  5.41115360 12.59691039
   4.65102487  6.95641407  6.96352039
   6.97230818  6.96561592  4.64425109
   4.65167551  4.64907297  4.63853860
   6.97109985  4.64739990  2.32366352
   4.64739990  6.97109985  2.32366352
   6.11504879  4.72677749 13.76818972
 


--------------------------------------------------------------------------------------------------------


 k-point  1 :   0.1250 0.1250 0.0000  plane waves:   51155
 k-point  2 :   0.3750 0.1250 0.0000  plane waves:   51108
 k-point  3 :  -0.3750 0.1250 0.0000  plane waves:   51108
 k-point  4 :  -0.1250 0.1250 0.0000  plane waves:   51155
 k-point  5 :   0.1250 0.3750 0.0000  plane waves:   51108
 k-point  6 :   0.3750 0.3750 0.0000  plane waves:   51086
 k-point  7 :  -0.3750 0.3750 0.0000  plane waves:   51086
 k-point  8 :  -0.1250 0.3750 0.0000  plane waves:   51108

 maximum and minimum number of plane-waves per node :      6418     6366

 maximum number of plane-waves:     51155
 maximum index in each direction: 
   IXMAX=   17   IYMAX=   17   IZMAX=   40
   IXMIN=  -17   IYMIN=  -17   IZMIN=  -40


 real space projection operators:
  total allocation   :      12554.39 KBytes
  max/ min on nodes  :       1673.05       1319.72


 parallel 3D FFT for wavefunctions:
    minimum data exchange during FFTs selected (reduces bandwidth)
 parallel 3D FFT for charge:
    minimum data exchange during FFTs selected (reduces bandwidth)


 total amount of memory used by VASP MPI-rank0    71891. kBytes
=======================================================================

   base      :      30000. kBytes
   nonlr-proj:       4721. kBytes
   fftplans  :       3241. kBytes
   grid      :       5415. kBytes
   one-center:        139. kBytes
   wavefun   :      28375. kBytes
 
     INWAV:  cpu time    0.0001: real time    0.0001
 Broyden mixing: mesh for mixing (old mesh)
   NGX = 35   NGY = 35   NGZ = 81
  (NGX  =108   NGY  =108   NGZ  =252)
  gives a total of  99225 points

 initial charge density was supplied:
 charge density of overlapping atoms calculated
 number of electron     454.0000000 magnetization 
 keeping initial charge density in first step


--------------------------------------------------------------------------------------------------------


 Maximum index for non-local projection operator          336
 Maximum index for augmentation-charges          577 (set IRDMAX)


--------------------------------------------------------------------------------------------------------


 First call to EWALD:  gamma=   0.143
 Maximum number of real-space cells 3x 3x 2
 Maximum number of reciprocal cells 2x 2x 4

    FEWALD:  cpu time    0.0096: real time    0.0104


--------------------------------------- Iteration      1(   1)  ---------------------------------------


    POTLOK:  cpu time    0.2212: real time    0.2313
    SETDIJ:  cpu time    0.0401: real time    0.0402
     EDDAV:  cpu time   43.7374: real time   44.0707
       DOS:  cpu time    0.0055: real time    0.0055
    --------------------------------------------
      LOOP:  cpu time   44.0045: real time   44.3480

 eigenvalue-minimisations  :  5128
 total energy-change (2. order) : 0.2887812E+04  (-0.2369403E+05)
 number of electron     454.0000000 magnetization 
 augmentation part      454.0000000 magnetization 

 Free energy of the ion-electron system (eV)
  ---------------------------------------------------
  alpha Z        PSCENC =      1612.12532183
  Ewald energy   TEWEN  =     97031.38573156
  -Hartree energ DENC   =   -125814.48333355
  -exchange      EXHF   =         0.00000000
  -V(xc)+E(xc)   XCENC  =      1102.08213736
  PAW double counting   =     24843.15204238   -24459.39875585
  entropy T*S    EENTRO =        -0.01954154
  eigenvalues    EBANDS =     -4117.57476563
  atomic energy  EATOM  =     32690.54280978
  Solvation  Ediel_sol  =         0.00000000
  ---------------------------------------------------
  free energy    TOTEN  =      2887.81164635 eV

  energy without entropy =     2887.83118789  energy(sigma->0) =     2887.82141712


--------------------------------------------------------------------------------------------------------




--------------------------------------- Iteration      1(   2)  ---------------------------------------


     EDDAV:  cpu time   43.5457: real time   43.6556
       DOS:  cpu time    0.0049: real time    0.0049
    --------------------------------------------
      LOOP:  cpu time   43.5505: real time   43.6604

 eigenvalue-minimisations  :  5160
 total energy-change (2. order) :-0.3333539E+04  (-0.3222125E+04)
 number of electron     454.0000000 magnetization 
 augmentation part      454.0000000 magnetization 

 Free energy of the ion-electron system (eV)
  ---------------------------------------------------
  alpha Z        PSCENC =      1612.12532183
  Ewald energy   TEWEN  =     97031.38573156
  -Hartree energ DENC   =   -125814.48333355
  -exchange      EXHF   =         0.00000000
  -V(xc)+E(xc)   XCENC  =      1102.08213736
  PAW double counting   =     24843.15204238   -24459.39875585
  entropy T*S    EENTRO =        -0.00975677
  eigenvalues    EBANDS =     -7451.12337137
  atomic energy  EATOM  =     32690.54280978
  Solvation  Ediel_sol  =         0.00000000
  ---------------------------------------------------
  free energy    TOTEN  =      -445.72717462 eV

  energy without entropy =     -445.71741785  energy(sigma->0) =     -445.72229623


--------------------------------------------------------------------------------------------------------




--------------------------------------- Iteration      1(   3)  ---------------------------------------


     EDDAV:  cpu time   45.0995: real time   45.5351
       DOS:  cpu time    0.0041: real time    0.0041
    --------------------------------------------
      LOOP:  cpu time   45.1036: real time   45.5392

 eigenvalue-minimisations  :  5392
 total energy-change (2. order) :-0.3192957E+03  (-0.3120988E+03)
 number of electron     454.0000000 magnetization 
 augmentation part      454.0000000 magnetization 

 Free energy of the ion-electron system (eV)
  ---------------------------------------------------
  alpha Z        PSCENC =      1612.12532183
  Ewald energy   TEWEN  =     97031.38573156
  -Hartree energ DENC   =   -125814.48333355
  -exchange      EXHF   =         0.00000000
  -V(xc)+E(xc)   XCENC  =      1102.08213736
  PAW double counting   =     24843.15204238   -24459.39875585
  entropy T*S    EENTRO =        -0.00021280
  eigenvalues    EBANDS =     -7770.42865927
  atomic energy  EATOM  =     32690.54280978
  Solvation  Ediel_sol  =         0.00000000
  ---------------------------------------------------
  free energy    TOTEN  =      -765.02291855 eV

  energy without entropy =     -765.02270575  energy(sigma->0) =     -765.02281215


--------------------------------------------------------------------------------------------------------




--------------------------------------- Iteration      1(   4)  ---------------------------------------


     EDDAV:  cpu time   46.3255: real time   46.6383
       DOS:  cpu time    0.0042: real time    0.0042
    --------------------------------------------
      LOOP:  cpu time   46.3297: real time   46.6424

 eigenvalue-minimisations  :  5552
 total energy-change (2. order) :-0.1450105E+02  (-0.1442767E+02)
 number of electron     454.0000000 magnetization 
 augmentation part      454.0000000 magnetization 

 Free energy of the ion-electron system (eV)
  ---------------------------------------------------
  alpha Z        PSCENC =      1612.12532183
  Ewald energy   TEWEN  =     97031.38573156
  -Hartree energ DENC   =   -125814.48333355
  -exchange      EXHF   =         0.00000000
  -V(xc)+E(xc)   XCENC  =      1102.08213736
  PAW double counting   =     24843.15204238   -24459.39875585
  entropy T*S    EENTRO =        -0.00027165
  eigenvalues    EBANDS =     -7784.92964701
  atomic energy  EATOM  =     32690.54280978
  Solvation  Ediel_sol  =         0.00000000
  ---------------------------------------------------
  free energy    TOTEN  =      -779.52396514 eV

  energy without entropy =     -779.52369349  energy(sigma->0) =     -779.52382932


--------------------------------------------------------------------------------------------------------




--------------------------------------- Iteration      1(   5)  ---------------------------------------


     EDDAV:  cpu time   46.0437: real time   46.3819
       DOS:  cpu time    0.0043: real time    0.0043
    CHARGE:  cpu time    1.6983: real time    1.7015
    MIXING:  cpu time    0.0108: real time    0.0116
    --------------------------------------------
      LOOP:  cpu time   47.7572: real time   48.0994

 eigenvalue-minimisations  :  5496
 total energy-change (2. order) :-0.3533203E+00  (-0.3526883E+00)
 number of electron     454.0000087 magnetization 
 augmentation part       88.9205644 magnetization 

 Broyden mixing:
  rms(total) = 0.30574E+02    rms(broyden)= 0.30574E+02
  rms(prec ) = 0.30719E+02
  weight for this iteration     100.00

 Free energy of the ion-electron system (eV)
  ---------------------------------------------------
  alpha Z        PSCENC =      1612.12532183
  Ewald energy   TEWEN  =     97031.38573156
  -Hartree energ DENC   =   -125814.48333355
  -exchange      EXHF   =         0.00000000
  -V(xc)+E(xc)   XCENC  =      1102.08213736
  PAW double counting   =     24843.15204238   -24459.39875585
  entropy T*S    EENTRO =        -0.00026483
  eigenvalues    EBANDS =     -7785.28297415
  atomic energy  EATOM  =     32690.54280978
  Solvation  Ediel_sol  =         0.00000000
  ---------------------------------------------------
  free energy    TOTEN  =      -779.87728546 eV

  energy without entropy =     -779.87702063  energy(sigma->0) =     -779.87715304


--------------------------------------------------------------------------------------------------------




--------------------------------------- Iteration      1(   6)  ---------------------------------------


    POTLOK:  cpu time    0.1650: real time    0.1961
    SETDIJ:  cpu time    0.0374: real time    0.0374
     EDDAV:  cpu time   41.5941: real time   41.6870
       DOS:  cpu time    0.0047: real time    0.0047
    CHARGE:  cpu time    1.6868: real time    1.6890
    MIXING:  cpu time    0.0096: real time    0.0214
    --------------------------------------------
      LOOP:  cpu time   43.4975: real time   43.6357

 eigenvalue-minimisations  :  4904
 total energy-change (2. order) : 0.1171704E+03  (-0.7661848E+02)
 number of electron     453.9999985 magnetization 
 augmentation part       89.1352586 magnetization 

 Broyden mixing:
  rms(total) = 0.21275E+02    rms(broyden)= 0.21275E+02
  rms(prec ) = 0.21335E+02
  weight for this iteration     100.00

 eigenvalues of (default mixing * dielectric matrix)
  average eigenvalue GAMMA=   2.1776
  2.1776

 Free energy of the ion-electron system (eV)
  ---------------------------------------------------
  alpha Z        PSCENC =      1612.12532183
  Ewald energy   TEWEN  =     97031.38573156
  -Hartree energ DENC   =   -126166.58070682
  -exchange      EXHF   =         0.00000000
  -V(xc)+E(xc)   XCENC  =      1114.83367341
  PAW double counting   =     39619.29496687   -39258.46031654
  entropy T*S    EENTRO =        -0.03583141
  eigenvalues    EBANDS =     -7305.81251149
  atomic energy  EATOM  =     32690.54280978
  Solvation  Ediel_sol  =         0.00000000
  ---------------------------------------------------
  free energy    TOTEN  =      -662.70686280 eV

  energy without entropy =     -662.67103139  energy(sigma->0) =     -662.68894710


--------------------------------------------------------------------------------------------------------




--------------------------------------- Iteration      1(   7)  ---------------------------------------


    POTLOK:  cpu time    0.1633: real time    0.1939
    SETDIJ:  cpu time    0.0385: real time    0.0385
     EDDAV:  cpu time   48.6401: real time   48.9573
       DOS:  cpu time    0.0048: real time    0.0048
    CHARGE:  cpu time    1.7168: real time    1.7190
    MIXING:  cpu time    0.0064: real time    0.0082
    --------------------------------------------
      LOOP:  cpu time   50.5699: real time   50.9217

 eigenvalue-minimisations  :  5904
 total energy-change (2. order) :-0.7738774E+02  (-0.3870332E+02)
 number of electron     454.0000025 magnetization 
 augmentation part       90.3757915 magnetization 

 Broyden mixing:
  rms(total) = 0.79452E+01    rms(broyden)= 0.79448E+01
  rms(prec ) = 0.10370E+02
  weight for this iteration     100.00

 eigenvalues of (default mixing * dielectric matrix)
  average eigenvalue GAMMA=   1.5378
  0.6734  2.4022

 Free energy of the ion-electron system (eV)
  ---------------------------------------------------
  alpha Z        PSCENC =      1612.12532183
  Ewald energy   TEWEN  =     97031.38573156
  -Hartree energ DENC   =   -126394.45084317
  -exchange      EXHF   =         0.00000000
  -V(xc)+E(xc)   XCENC  =      1101.38035075
  PAW double counting   =     68043.47808970   -67693.37928586
  entropy T*S    EENTRO =        -0.06632650
  eigenvalues    EBANDS =     -7131.11044823
  atomic energy  EATOM  =     32690.54280978
  Solvation  Ediel_sol  =         0.00000000
  ---------------------------------------------------
  free energy    TOTEN  =      -740.09460013 eV

  energy without entropy =     -740.02827362  energy(sigma->0) =     -740.06143688


--------------------------------------------------------------------------------------------------------




--------------------------------------- Iteration      1(   8)  ---------------------------------------


    POTLOK:  cpu time    0.1646: real time    0.1951
    SETDIJ:  cpu time    0.0386: real time    0.0385
     EDDAV:  cpu time   51.8895: real time   52.2462
       DOS:  cpu time    0.0048: real time    0.0048
    CHARGE:  cpu time    1.7234: real time    1.7259
    MIXING:  cpu time    0.0063: real time    0.0063
    --------------------------------------------
      LOOP:  cpu time   53.8272: real time   54.2168

 eigenvalue-minimisations  :  6376
 total energy-change (2. order) :-0.1564268E+02  (-0.7398669E+02)
 number of electron     453.9999986 magnetization 
 augmentation part       90.7799635 magnetization 

 Broyden mixing:
  rms(total) = 0.10501E+02    rms(broyden)= 0.10501E+02
  rms(prec ) = 0.14046E+02
  weight for this iteration     100.00

 eigenvalues of (default mixing * dielectric matrix)
  average eigenvalue GAMMA=   1.1223
  2.2723  0.8151  0.2795

 Free energy of the ion-electron system (eV)
  ---------------------------------------------------
  alpha Z        PSCENC =      1612.12532183
  Ewald energy   TEWEN  =     97031.38573156
  -Hartree energ DENC   =   -126242.69957219
  -exchange      EXHF   =         0.00000000
  -V(xc)+E(xc)   XCENC  =      1101.62004082
  PAW double counting   =     74107.10628325   -73758.79258562
  entropy T*S    EENTRO =        -0.03395644
  eigenvalues    EBANDS =     -7296.99134995
  atomic energy  EATOM  =     32690.54280978
  Solvation  Ediel_sol  =         0.00000000
  ---------------------------------------------------
  free energy    TOTEN  =      -755.73727696 eV

  energy without entropy =     -755.70332052  energy(sigma->0) =     -755.72029874


--------------------------------------------------------------------------------------------------------




--------------------------------------- Iteration      1(   9)  ---------------------------------------


    POTLOK:  cpu time    0.1635: real time    0.1940
    SETDIJ:  cpu time    0.0383: real time    0.0383
     EDDAV:  cpu time   48.8743: real time   49.2116
       DOS:  cpu time    0.0051: real time    0.0051
    CHARGE:  cpu time    1.6804: real time    1.6829
    MIXING:  cpu time    0.0069: real time    0.0085
    --------------------------------------------
      LOOP:  cpu time   50.7685: real time   51.1405

 eigenvalue-minimisations  :  5928
 total energy-change (2. order) : 0.9233060E+02  (-0.4794606E+02)
 number of electron     454.0000023 magnetization 
 augmentation part       89.7103764 magnetization 

 Broyden mixing:
  rms(total) = 0.41451E+01    rms(broyden)= 0.41448E+01
  rms(prec ) = 0.43115E+01
  weight for this iteration     100.00

 eigenvalues of (default mixing * dielectric matrix)
  average eigenvalue GAMMA=   1.0866
  2.6912  0.6838  0.6838  0.2876

 Free energy of the ion-electron system (eV)
  ---------------------------------------------------
  alpha Z        PSCENC =      1612.12532183
  Ewald energy   TEWEN  =     97031.38573156
  -Hartree energ DENC   =   -126102.88287140
  -exchange      EXHF   =         0.00000000
  -V(xc)+E(xc)   XCENC  =      1103.01854386
  PAW double counting   =     73852.08117155   -73502.58181205
  entropy T*S    EENTRO =        -0.04186920
  eigenvalues    EBANDS =     -7347.05370768
  atomic energy  EATOM  =     32690.54280978
  Solvation  Ediel_sol  =         0.00000000
  ---------------------------------------------------
  free energy    TOTEN  =      -663.40668174 eV

  energy without entropy =     -663.36481254  energy(sigma->0) =     -663.38574714


--------------------------------------------------------------------------------------------------------




--------------------------------------- Iteration      1(  10)  ---------------------------------------


    POTLOK:  cpu time    0.1645: real time    0.1941
    SETDIJ:  cpu time    0.0384: real time    0.0384
     EDDAV:  cpu time   45.9625: real time   46.4184
       DOS:  cpu time    0.0049: real time    0.0049
    CHARGE:  cpu time    1.6875: real time    1.6904
    MIXING:  cpu time    0.0067: real time    0.0067
    --------------------------------------------
      LOOP:  cpu time   47.8645: real time   48.3530

 eigenvalue-minimisations  :  5520
 total energy-change (2. order) : 0.7305160E+01  (-0.1088415E+02)
 number of electron     454.0000016 magnetization 
 augmentation part       89.6361523 magnetization 

 Broyden mixing:
  rms(total) = 0.28539E+01    rms(broyden)= 0.28538E+01
  rms(prec ) = 0.29002E+01
  weight for this iteration     100.00

 eigenvalues of (default mixing * dielectric matrix)
  average eigenvalue GAMMA=   1.0115
  2.7929  0.7788  0.5998  0.5998  0.2863

 Free energy of the ion-electron system (eV)
  ---------------------------------------------------
  alpha Z        PSCENC =      1612.12532183
  Ewald energy   TEWEN  =     97031.38573156
  -Hartree energ DENC   =   -126241.97659248
  -exchange      EXHF   =         0.00000000
  -V(xc)+E(xc)   XCENC  =      1104.88043221
  PAW double counting   =     78723.49886398   -78377.60983913
  entropy T*S    EENTRO =        -0.00820359
  eigenvalues    EBANDS =     -7198.94004616
  atomic energy  EATOM  =     32690.54280978
  Solvation  Ediel_sol  =         0.00000000
  ---------------------------------------------------
  free energy    TOTEN  =      -656.10152199 eV

  energy without entropy =     -656.09331840  energy(sigma->0) =     -656.09742019


--------------------------------------------------------------------------------------------------------




--------------------------------------- Iteration      1(  11)  ---------------------------------------


    POTLOK:  cpu time    0.1647: real time    0.1949
    SETDIJ:  cpu time    0.0384: real time    0.0384
     EDDAV:  cpu time   44.2892: real time   44.5471
       DOS:  cpu time    0.0047: real time    0.0047
    CHARGE:  cpu time    1.6837: real time    1.6862
    MIXING:  cpu time    0.0070: real time    0.0070
    --------------------------------------------
      LOOP:  cpu time   46.1877: real time   46.4783

 eigenvalue-minimisations  :  5272
 total energy-change (2. order) : 0.5446708E+00  (-0.9126812E+00)
 number of electron     454.0000013 magnetization 
 augmentation part       89.6717811 magnetization 

 Broyden mixing:
  rms(total) = 0.22268E+01    rms(broyden)= 0.22268E+01
  rms(prec ) = 0.22689E+01
  weight for this iteration     100.00

 eigenvalues of (default mixing * dielectric matrix)
  average eigenvalue GAMMA=   1.0129
  2.9138  0.7316  0.7316  0.8537  0.2811  0.5655

 Free energy of the ion-electron system (eV)
  ---------------------------------------------------
  alpha Z        PSCENC =      1612.12532183
  Ewald energy   TEWEN  =     97031.38573156
  -Hartree energ DENC   =   -126299.25412438
  -exchange      EXHF   =         0.00000000
  -V(xc)+E(xc)   XCENC  =      1105.83933126
  PAW double counting   =     77813.50646223   -77468.56978573
  entropy T*S    EENTRO =        -0.00647935
  eigenvalues    EBANDS =     -7141.12611834
  atomic energy  EATOM  =     32690.54280978
  Solvation  Ediel_sol  =         0.00000000
  ---------------------------------------------------
  free energy    TOTEN  =      -655.55685114 eV

  energy without entropy =     -655.55037179  energy(sigma->0) =     -655.55361147


--------------------------------------------------------------------------------------------------------




--------------------------------------- Iteration      1(  12)  ---------------------------------------


    POTLOK:  cpu time    0.1635: real time    0.1933
    SETDIJ:  cpu time    0.0383: real time    0.0383
     EDDAV:  cpu time   48.2739: real time   48.4311
       DOS:  cpu time    0.0046: real time    0.0046
    CHARGE:  cpu time    1.6671: real time    1.6894
    MIXING:  cpu time    0.0073: real time    0.0075
    --------------------------------------------
      LOOP:  cpu time   50.1546: real time   50.3642

 eigenvalue-minimisations  :  5872
 total energy-change (2. order) : 0.5204245E+00  (-0.1894462E+00)
 number of electron     454.0000011 magnetization 
 augmentation part       89.6668988 magnetization 

 Broyden mixing:
  rms(total) = 0.16396E+01    rms(broyden)= 0.16396E+01
  rms(prec ) = 0.16798E+01
  weight for this iteration     100.00

 eigenvalues of (default mixing * dielectric matrix)
  average eigenvalue GAMMA=   1.0983
  2.8822  1.2016  0.9733  0.9733  0.2830  0.6872  0.6872

 Free energy of the ion-electron system (eV)
  ---------------------------------------------------
  alpha Z        PSCENC =      1612.12532183
  Ewald energy   TEWEN  =     97031.38573156
  -Hartree energ DENC   =   -126356.02392027
  -exchange      EXHF   =         0.00000000
  -V(xc)+E(xc)   XCENC  =      1106.75566151
  PAW double counting   =     76220.06645244   -75875.76724685
  entropy T*S    EENTRO =        -0.00888240
  eigenvalues    EBANDS =     -7084.11235428
  atomic energy  EATOM  =     32690.54280978
  Solvation  Ediel_sol  =         0.00000000
  ---------------------------------------------------
  free energy    TOTEN  =      -655.03642668 eV

  energy without entropy =     -655.02754427  energy(sigma->0) =     -655.03198548


--------------------------------------------------------------------------------------------------------




--------------------------------------- Iteration      1(  13)  ---------------------------------------


    POTLOK:  cpu time    0.1639: real time    0.1951
    SETDIJ:  cpu time    0.0376: real time    0.0382
     EDDAV:  cpu time   47.4384: real time   47.8864
       DOS:  cpu time    0.0045: real time    0.0045
    CHARGE:  cpu time    1.6846: real time    1.6864
    MIXING:  cpu time    0.0077: real time    0.0077
    --------------------------------------------
      LOOP:  cpu time   49.3367: real time   49.8182

 eigenvalue-minimisations  :  5736
 total energy-change (2. order) :-0.1243162E+00  (-0.7911299E-01)
 number of electron     454.0000012 magnetization 
 augmentation part       89.6630244 magnetization 

 Broyden mixing:
  rms(total) = 0.10054E+01    rms(broyden)= 0.10054E+01
  rms(prec ) = 0.11418E+01
  weight for this iteration     100.00

 eigenvalues of (default mixing * dielectric matrix)
  average eigenvalue GAMMA=   1.1518
  2.8900  2.0806  1.0443  0.7845  0.7845  0.2823  0.6740  0.6740

 Free energy of the ion-electron system (eV)
  ---------------------------------------------------
  alpha Z        PSCENC =      1612.12532183
  Ewald energy   TEWEN  =     97031.38573156
  -Hartree energ DENC   =   -126413.49866491
  -exchange      EXHF   =         0.00000000
  -V(xc)+E(xc)   XCENC  =      1107.71054728
  PAW double counting   =     72713.36537447   -72368.99811425
  entropy T*S    EENTRO =        -0.00588773
  eigenvalues    EBANDS =     -7027.78786091
  atomic energy  EATOM  =     32690.54280978
  Solvation  Ediel_sol  =         0.00000000
  ---------------------------------------------------
  free energy    TOTEN  =      -655.16074288 eV

  energy without entropy =     -655.15485514  energy(sigma->0) =     -655.15779901


--------------------------------------------------------------------------------------------------------




--------------------------------------- Iteration      1(  14)  ---------------------------------------


    POTLOK:  cpu time    0.1638: real time    0.1941
    SETDIJ:  cpu time    0.0383: real time    0.0383
     EDDAV:  cpu time   45.8773: real time   46.3003
       DOS:  cpu time    0.0047: real time    0.0047
    CHARGE:  cpu time    1.6854: real time    1.6880
    MIXING:  cpu time    0.0080: real time    0.0080
    --------------------------------------------
      LOOP:  cpu time   47.7775: real time   48.2335

 eigenvalue-minimisations  :  5520
 total energy-change (2. order) : 0.8579272E+00  (-0.1384379E+00)
 number of electron     454.0000009 magnetization 
 augmentation part       89.6515269 magnetization 

 Broyden mixing:
  rms(total) = 0.58298E+00    rms(broyden)= 0.58297E+00
  rms(prec ) = 0.68269E+00
  weight for this iteration     100.00

 eigenvalues of (default mixing * dielectric matrix)
  average eigenvalue GAMMA=   1.1126
  2.6143  2.3977  1.2256  0.7796  0.7796  0.8155  0.2825  0.6252  0.4937

 Free energy of the ion-electron system (eV)
  ---------------------------------------------------
  alpha Z        PSCENC =      1612.12532183
  Ewald energy   TEWEN  =     97031.38573156
  -Hartree energ DENC   =   -126495.49751455
  -exchange      EXHF   =         0.00000000
  -V(xc)+E(xc)   XCENC  =      1108.66702683
  PAW double counting   =     70699.52905057   -70355.38688684
  entropy T*S    EENTRO =        -0.01850117
  eigenvalues    EBANDS =     -6945.64985369
  atomic energy  EATOM  =     32690.54280978
  Solvation  Ediel_sol  =         0.00000000
  ---------------------------------------------------
  free energy    TOTEN  =      -654.30281568 eV

  energy without entropy =     -654.28431451  energy(sigma->0) =     -654.29356510


--------------------------------------------------------------------------------------------------------




--------------------------------------- Iteration      1(  15)  ---------------------------------------


    POTLOK:  cpu time    0.1649: real time    0.1977
    SETDIJ:  cpu time    0.0384: real time    0.0384
     EDDAV:  cpu time   46.8554: real time   47.1612
       DOS:  cpu time    0.0047: real time    0.0047
    CHARGE:  cpu time    1.6846: real time    1.6870
    MIXING:  cpu time    0.0084: real time    0.0084
    --------------------------------------------
      LOOP:  cpu time   48.7564: real time   49.0973

 eigenvalue-minimisations  :  5648
 total energy-change (2. order) : 0.2799208E+00  (-0.4811292E-01)
 number of electron     454.0000008 magnetization 
 augmentation part       89.6478794 magnetization 

 Broyden mixing:
  rms(total) = 0.49303E+00    rms(broyden)= 0.49303E+00
  rms(prec ) = 0.54060E+00
  weight for this iteration     100.00

 eigenvalues of (default mixing * dielectric matrix)
  average eigenvalue GAMMA=   1.0050
  2.6139  2.4062  1.2152  0.7802  0.7802  0.8156  0.2825  0.6251  0.5027  0.0280

 Free energy of the ion-electron system (eV)
  ---------------------------------------------------
  alpha Z        PSCENC =      1612.12532183
  Ewald energy   TEWEN  =     97031.38573156
  -Hartree energ DENC   =   -126515.21753723
  -exchange      EXHF   =         0.00000000
  -V(xc)+E(xc)   XCENC  =      1108.80939335
  PAW double counting   =     70540.85210606   -70196.77541625
  entropy T*S    EENTRO =        -0.01995569
  eigenvalues    EBANDS =     -6925.72534831
  atomic energy  EATOM  =     32690.54280978
  Solvation  Ediel_sol  =         0.00000000
  ---------------------------------------------------
  free energy    TOTEN  =      -654.02289488 eV

  energy without entropy =     -654.00293919  energy(sigma->0) =     -654.01291704


--------------------------------------------------------------------------------------------------------




--------------------------------------- Iteration      1(  16)  ---------------------------------------


    POTLOK:  cpu time    0.1648: real time    0.1941
    SETDIJ:  cpu time    0.0383: real time    0.0383
     EDDAV:  cpu time   41.4070: real time   41.7703
       DOS:  cpu time    0.0052: real time    0.0052
    CHARGE:  cpu time    1.6862: real time    1.6890
    MIXING:  cpu time    0.0090: real time    0.0098
    --------------------------------------------
      LOOP:  cpu time   43.3106: real time   43.7068

 eigenvalue-minimisations  :  4872
 total energy-change (2. order) :-0.1315557E-01  (-0.1001924E-01)
 number of electron     454.0000008 magnetization 
 augmentation part       89.6475619 magnetization 

 Broyden mixing:
  rms(total) = 0.44467E+00    rms(broyden)= 0.44467E+00
  rms(prec ) = 0.49726E+00
  weight for this iteration     100.00

 eigenvalues of (default mixing * dielectric matrix)
  average eigenvalue GAMMA=   0.9244
  2.6484  2.3741  1.1867  0.7779  0.7779  0.8434  0.2825  0.5683  0.5324  0.1081
  0.0693

 Free energy of the ion-electron system (eV)
  ---------------------------------------------------
  alpha Z        PSCENC =      1612.12532183
  Ewald energy   TEWEN  =     97031.38573156
  -Hartree energ DENC   =   -126514.89359790
  -exchange      EXHF   =         0.00000000
  -V(xc)+E(xc)   XCENC  =      1108.81135968
  PAW double counting   =     70535.31532511   -70191.23873726
  entropy T*S    EENTRO =        -0.01996494
  eigenvalues    EBANDS =     -6926.06429833
  atomic energy  EATOM  =     32690.54280978
  Solvation  Ediel_sol  =         0.00000000
  ---------------------------------------------------
  free energy    TOTEN  =      -654.03605046 eV

  energy without entropy =     -654.01608552  energy(sigma->0) =     -654.02606799


--------------------------------------------------------------------------------------------------------




--------------------------------------- Iteration      1(  17)  ---------------------------------------


    POTLOK:  cpu time    0.1649: real time    0.1944
    SETDIJ:  cpu time    0.0383: real time    0.0383
     EDDAV:  cpu time   47.2179: real time   47.3965
       DOS:  cpu time    0.0045: real time    0.0046
    CHARGE:  cpu time    1.6600: real time    1.6917
    MIXING:  cpu time    0.0094: real time    0.0093
    --------------------------------------------
      LOOP:  cpu time   49.0949: real time   49.3349

 eigenvalue-minimisations  :  5720
 total energy-change (2. order) : 0.4550908E-02  (-0.3147874E-03)
 number of electron     454.0000008 magnetization 
 augmentation part       89.6484988 magnetization 

 Broyden mixing:
  rms(total) = 0.45214E+00    rms(broyden)= 0.45214E+00
  rms(prec ) = 0.50134E+00
  weight for this iteration     100.00

 eigenvalues of (default mixing * dielectric matrix)
  average eigenvalue GAMMA=   0.9240
  2.4979  2.4979  1.1827  0.9388  0.7727  0.7727  0.5503  0.5503  0.2825  0.3543
  0.3441  0.3441

 Free energy of the ion-electron system (eV)
  ---------------------------------------------------
  alpha Z        PSCENC =      1612.12532183
  Ewald energy   TEWEN  =     97031.38573156
  -Hartree energ DENC   =   -126512.80279704
  -exchange      EXHF   =         0.00000000
  -V(xc)+E(xc)   XCENC  =      1108.79341904
  PAW double counting   =     70536.52193989   -70192.43646931
  entropy T*S    EENTRO =        -0.01981259
  eigenvalues    EBANDS =     -6928.14164272
  atomic energy  EATOM  =     32690.54280978
  Solvation  Ediel_sol  =         0.00000000
  ---------------------------------------------------
  free energy    TOTEN  =      -654.03149955 eV

  energy without entropy =     -654.01168696  energy(sigma->0) =     -654.02159325


--------------------------------------------------------------------------------------------------------




--------------------------------------- Iteration      1(  18)  ---------------------------------------


    POTLOK:  cpu time    0.1642: real time    0.1946
    SETDIJ:  cpu time    0.0385: real time    0.0385
     EDDAV:  cpu time   42.3487: real time   42.6175
       DOS:  cpu time    0.0050: real time    0.0050
    CHARGE:  cpu time    1.6855: real time    1.6892
    MIXING:  cpu time    0.0097: real time    0.0097
    --------------------------------------------
      LOOP:  cpu time   44.2515: real time   44.5545

 eigenvalue-minimisations  :  4992
 total energy-change (2. order) :-0.4125596E-02  (-0.1922463E-02)
 number of electron     454.0000008 magnetization 
 augmentation part       89.6522051 magnetization 

 Broyden mixing:
  rms(total) = 0.43151E+00    rms(broyden)= 0.43150E+00
  rms(prec ) = 0.48509E+00
  weight for this iteration     100.00

 eigenvalues of (default mixing * dielectric matrix)
  average eigenvalue GAMMA=   1.0125
  2.4834  2.4834  1.7169  1.0125  1.0125  0.8053  0.8053  0.8226  0.6465  0.2825
  0.4691  0.3112  0.3112

 Free energy of the ion-electron system (eV)
  ---------------------------------------------------
  alpha Z        PSCENC =      1612.12532183
  Ewald energy   TEWEN  =     97031.38573156
  -Hartree energ DENC   =   -126520.19928469
  -exchange      EXHF   =         0.00000000
  -V(xc)+E(xc)   XCENC  =      1108.80636668
  PAW double counting   =     70574.42005327   -70230.33272948
  entropy T*S    EENTRO =        -0.01980695
  eigenvalues    EBANDS =     -6920.76408716
  atomic energy  EATOM  =     32690.54280978
  Solvation  Ediel_sol  =         0.00000000
  ---------------------------------------------------
  free energy    TOTEN  =      -654.03562514 eV

  energy without entropy =     -654.01581820  energy(sigma->0) =     -654.02572167


--------------------------------------------------------------------------------------------------------




--------------------------------------- Iteration      1(  19)  ---------------------------------------


    POTLOK:  cpu time    0.1936: real time    0.1942
    SETDIJ:  cpu time    0.0386: real time    0.0386
     EDDAV:  cpu time   43.1299: real time   43.3787
       DOS:  cpu time    0.0053: real time    0.0053
    CHARGE:  cpu time    1.6864: real time    1.6891
    MIXING:  cpu time    0.0100: real time    0.0100
    --------------------------------------------
      LOOP:  cpu time   45.0638: real time   45.3159

 eigenvalue-minimisations  :  5104
 total energy-change (2. order) :-0.5196433E-02  (-0.1368808E-01)
 number of electron     454.0000007 magnetization 
 augmentation part       89.6304449 magnetization 

 Broyden mixing:
  rms(total) = 0.55569E+00    rms(broyden)= 0.55569E+00
  rms(prec ) = 0.60340E+00
  weight for this iteration     100.00

 eigenvalues of (default mixing * dielectric matrix)
  average eigenvalue GAMMA=   1.0564
  2.6811  2.6811  2.4696  1.0224  1.0224  0.7981  0.7981  0.8160  0.6876  0.2825
  0.4604  0.4604  0.3050  0.3050

 Free energy of the ion-electron system (eV)
  ---------------------------------------------------
  alpha Z        PSCENC =      1612.12532183
  Ewald energy   TEWEN  =     97031.38573156
  -Hartree energ DENC   =   -126555.76331519
  -exchange      EXHF   =         0.00000000
  -V(xc)+E(xc)   XCENC  =      1109.03218310
  PAW double counting   =     70687.01639325   -70343.08466614
  entropy T*S    EENTRO =        -0.02091751
  eigenvalues    EBANDS =     -6885.27436226
  atomic energy  EATOM  =     32690.54280978
  Solvation  Ediel_sol  =         0.00000000
  ---------------------------------------------------
  free energy    TOTEN  =      -654.04082158 eV

  energy without entropy =     -654.01990407  energy(sigma->0) =     -654.03036282


--------------------------------------------------------------------------------------------------------




--------------------------------------- Iteration      1(  20)  ---------------------------------------


    POTLOK:  cpu time    0.1658: real time    0.1952
    SETDIJ:  cpu time    0.0384: real time    0.0384
     EDDAV:  cpu time   44.2889: real time   44.5947
       DOS:  cpu time    0.0047: real time    0.0047
    CHARGE:  cpu time    1.6834: real time    1.6860
    MIXING:  cpu time    0.0106: real time    0.0106
    --------------------------------------------
      LOOP:  cpu time   46.1919: real time   46.5296

 eigenvalue-minimisations  :  5272
 total energy-change (2. order) : 0.1103730E-01  (-0.4083147E-02)
 number of electron     454.0000008 magnetization 
 augmentation part       89.6487141 magnetization 

 Broyden mixing:
  rms(total) = 0.71908E+00    rms(broyden)= 0.71908E+00
  rms(prec ) = 0.75433E+00
  weight for this iteration     100.00

 eigenvalues of (default mixing * dielectric matrix)
  average eigenvalue GAMMA=   1.1021
  3.1650  3.1650  2.3783  1.1435  1.1435  0.7862  0.7862  0.8455  0.6893  0.6893
  0.3094  0.3094  0.2825  0.4195  0.4195

 Free energy of the ion-electron system (eV)
  ---------------------------------------------------
  alpha Z        PSCENC =      1612.12532183
  Ewald energy   TEWEN  =     97031.38573156
  -Hartree energ DENC   =   -126563.59286019
  -exchange      EXHF   =         0.00000000
  -V(xc)+E(xc)   XCENC  =      1108.94291463
  PAW double counting   =     70921.70499360   -70577.77186272
  entropy T*S    EENTRO =        -0.02041664
  eigenvalues    EBANDS =     -6877.34641612
  atomic energy  EATOM  =     32690.54280978
  Solvation  Ediel_sol  =         0.00000000
  ---------------------------------------------------
  free energy    TOTEN  =      -654.02978428 eV

  energy without entropy =     -654.00936764  energy(sigma->0) =     -654.01957596


--------------------------------------------------------------------------------------------------------




--------------------------------------- Iteration      1(  21)  ---------------------------------------


    POTLOK:  cpu time    0.1667: real time    0.1967
    SETDIJ:  cpu time    0.0385: real time    0.0385
     EDDAV:  cpu time   43.3966: real time   43.5022
       DOS:  cpu time    0.0049: real time    0.0049
    CHARGE:  cpu time    1.6990: real time    1.7138
    MIXING:  cpu time    0.0111: real time    0.0111
    --------------------------------------------
      LOOP:  cpu time   45.3167: real time   45.4671

 eigenvalue-minimisations  :  5168
 total energy-change (2. order) : 0.1444058E-01  (-0.4986311E-02)
 number of electron     454.0000008 magnetization 
 augmentation part       89.6407960 magnetization 

 Broyden mixing:
  rms(total) = 0.97796E+00    rms(broyden)= 0.97796E+00
  rms(prec ) = 0.10002E+01
  weight for this iteration     100.00

 eigenvalues of (default mixing * dielectric matrix)
  average eigenvalue GAMMA=   1.0775
  3.1683  3.1683  2.3955  1.2536  1.2536  0.7795  0.7795  0.8240  0.6852  0.6852
  0.3104  0.3104  0.2825  0.4579  0.4579  0.4277

 Free energy of the ion-electron system (eV)
  ---------------------------------------------------
  alpha Z        PSCENC =      1612.12532183
  Ewald energy   TEWEN  =     97031.38573156
  -Hartree energ DENC   =   -126584.10368567
  -exchange      EXHF   =         0.00000000
  -V(xc)+E(xc)   XCENC  =      1109.03283733
  PAW double counting   =     70956.35704404   -70612.50059103
  entropy T*S    EENTRO =        -0.02077606
  eigenvalues    EBANDS =     -6856.83403549
  atomic energy  EATOM  =     32690.54280978
  Solvation  Ediel_sol  =         0.00000000
  ---------------------------------------------------
  free energy    TOTEN  =      -654.01534371 eV

  energy without entropy =     -653.99456765  energy(sigma->0) =     -654.00495568


--------------------------------------------------------------------------------------------------------




--------------------------------------- Iteration      1(  22)  ---------------------------------------


    POTLOK:  cpu time    0.1782: real time    0.2162
    SETDIJ:  cpu time    0.0384: real time    0.0385
     EDDAV:  cpu time   46.4137: real time   46.6471
       DOS:  cpu time    0.0049: real time    0.0049
    CHARGE:  cpu time    1.6819: real time    1.6833
    MIXING:  cpu time    0.0116: real time    0.0116
    --------------------------------------------
      LOOP:  cpu time   48.3286: real time   48.6015

 eigenvalue-minimisations  :  5584
 total energy-change (2. order) : 0.1760360E-01  (-0.1216456E-02)
 number of electron     454.0000008 magnetization 
 augmentation part       89.6410418 magnetization 

 Broyden mixing:
  rms(total) = 0.11046E+01    rms(broyden)= 0.11046E+01
  rms(prec ) = 0.11219E+01
  weight for this iteration     100.00

 eigenvalues of (default mixing * dielectric matrix)
  average eigenvalue GAMMA=   1.1023
  2.9573  2.9573  2.5227  1.4009  1.4009  1.0021  1.0021  0.8042  0.8042  0.7857
  0.6779  0.6779  0.3094  0.3094  0.2825  0.4228  0.4228

 Free energy of the ion-electron system (eV)
  ---------------------------------------------------
  alpha Z        PSCENC =      1612.12532183
  Ewald energy   TEWEN  =     97031.38573156
  -Hartree energ DENC   =   -126591.79216701
  -exchange      EXHF   =         0.00000000
  -V(xc)+E(xc)   XCENC  =      1109.05147766
  PAW double counting   =     70931.53091682   -70587.72154498
  entropy T*S    EENTRO =        -0.02095487
  eigenvalues    EBANDS =     -6849.09933091
  atomic energy  EATOM  =     32690.54280978
  Solvation  Ediel_sol  =         0.00000000
  ---------------------------------------------------
  free energy    TOTEN  =      -653.99774011 eV

  energy without entropy =     -653.97678524  energy(sigma->0) =     -653.98726267


--------------------------------------------------------------------------------------------------------




--------------------------------------- Iteration      1(  23)  ---------------------------------------


    POTLOK:  cpu time    0.1668: real time    0.1972
    SETDIJ:  cpu time    0.0385: real time    0.0385
     EDDAV:  cpu time   46.3698: real time   46.6473
       DOS:  cpu time    0.0046: real time    0.0046
    CHARGE:  cpu time    1.7051: real time    1.7066
    MIXING:  cpu time    0.0118: real time    0.0118
    --------------------------------------------
      LOOP:  cpu time   48.2965: real time   48.6060

 eigenvalue-minimisations  :  5584
 total energy-change (2. order) : 0.2232175E-01  (-0.9053999E-03)
 number of electron     454.0000007 magnetization 
 augmentation part       89.6410490 magnetization 

 Broyden mixing:
  rms(total) = 0.11814E+01    rms(broyden)= 0.11814E+01
  rms(prec ) = 0.11947E+01
  weight for this iteration     100.00

 eigenvalues of (default mixing * dielectric matrix)
  average eigenvalue GAMMA=   1.2109
  3.7202  3.7202  2.5834  1.9555  1.3097  1.3097  1.0641  0.7991  0.7991  0.8336
  0.7096  0.7096  0.3094  0.3094  0.2825  0.5289  0.4258  0.4258

 Free energy of the ion-electron system (eV)
  ---------------------------------------------------
  alpha Z        PSCENC =      1612.12532183
  Ewald energy   TEWEN  =     97031.38573156
  -Hartree energ DENC   =   -126599.02367336
  -exchange      EXHF   =         0.00000000
  -V(xc)+E(xc)   XCENC  =      1109.07894793
  PAW double counting   =     70897.00699940   -70553.25657927
  entropy T*S    EENTRO =        -0.02140093
  eigenvalues    EBANDS =     -6841.81357532
  atomic energy  EATOM  =     32690.54280978
  Solvation  Ediel_sol  =         0.00000000
  ---------------------------------------------------
  free energy    TOTEN  =      -653.97541835 eV

  energy without entropy =     -653.95401742  energy(sigma->0) =     -653.96471789


--------------------------------------------------------------------------------------------------------




--------------------------------------- Iteration      1(  24)  ---------------------------------------


    POTLOK:  cpu time    0.1695: real time    0.2147
    SETDIJ:  cpu time    0.0384: real time    0.0384
     EDDAV:  cpu time   43.6497: real time   43.9260
       DOS:  cpu time    0.0047: real time    0.0047
    CHARGE:  cpu time    1.6993: real time    1.7010
    MIXING:  cpu time    0.0122: real time    0.0129
    --------------------------------------------
      LOOP:  cpu time   45.5738: real time   45.8977

 eigenvalue-minimisations  :  5192
 total energy-change (2. order) : 0.1403736E-01  (-0.3370845E-02)
 number of electron     454.0000007 magnetization 
 augmentation part       89.6434547 magnetization 

 Broyden mixing:
  rms(total) = 0.13962E+01    rms(broyden)= 0.13962E+01
  rms(prec ) = 0.14039E+01
  weight for this iteration     100.00

 eigenvalues of (default mixing * dielectric matrix)
  average eigenvalue GAMMA=   1.1472
  3.7200  3.7200  2.5833  1.9556  1.3097  1.3097  1.0641  0.7991  0.7991  0.8337
  0.7096  0.7096  0.3094  0.3094  0.2825  0.5291  0.4258  0.4258  0.0010

 Free energy of the ion-electron system (eV)
  ---------------------------------------------------
  alpha Z        PSCENC =      1612.12532183
  Ewald energy   TEWEN  =     97031.38573156
  -Hartree energ DENC   =   -126615.28575046
  -exchange      EXHF   =         0.00000000
  -V(xc)+E(xc)   XCENC  =      1109.10914881
  PAW double counting   =     70896.01149923   -70552.33879533
  entropy T*S    EENTRO =        -0.02605428
  eigenvalues    EBANDS =     -6825.48529214
  atomic energy  EATOM  =     32690.54280978
  Solvation  Ediel_sol  =         0.00000000
  ---------------------------------------------------
  free energy    TOTEN  =      -653.96138099 eV

  energy without entropy =     -653.93532671  energy(sigma->0) =     -653.94835385


--------------------------------------------------------------------------------------------------------




--------------------------------------- Iteration      1(  25)  ---------------------------------------


    POTLOK:  cpu time    0.1689: real time    0.1979
    SETDIJ:  cpu time    0.0383: real time    0.0383
     EDDAV:  cpu time   42.1758: real time   42.5626
       DOS:  cpu time    0.0047: real time    0.0047
    CHARGE:  cpu time    1.6935: real time    1.6965
    MIXING:  cpu time    0.0129: real time    0.0129
    --------------------------------------------
      LOOP:  cpu time   44.0942: real time   44.5129

 eigenvalue-minimisations  :  4984
 total energy-change (2. order) :-0.1110964E-03  (-0.9226143E-03)
 number of electron     454.0000007 magnetization 
 augmentation part       89.6436426 magnetization 

 Broyden mixing:
  rms(total) = 0.14654E+01    rms(broyden)= 0.14654E+01
  rms(prec ) = 0.14726E+01
  weight for this iteration     100.00

 eigenvalues of (default mixing * dielectric matrix)
  average eigenvalue GAMMA=   1.1111
  3.7178  3.7178  2.5472  1.8405  1.3661  1.3661  1.0927  0.7996  0.7996  0.8172
  0.7125  0.7125  0.3094  0.3094  0.2825  0.5473  0.4261  0.4261  0.2161  0.2161

 Free energy of the ion-electron system (eV)
  ---------------------------------------------------
  alpha Z        PSCENC =      1612.12532183
  Ewald energy   TEWEN  =     97031.38573156
  -Hartree energ DENC   =   -126616.06503447
  -exchange      EXHF   =         0.00000000
  -V(xc)+E(xc)   XCENC  =      1109.11743268
  PAW double counting   =     70897.02970913   -70553.37152893
  entropy T*S    EENTRO =        -0.02610514
  eigenvalues    EBANDS =     -6824.69982853
  atomic energy  EATOM  =     32690.54280978
  Solvation  Ediel_sol  =         0.00000000
  ---------------------------------------------------
  free energy    TOTEN  =      -653.96149209 eV

  energy without entropy =     -653.93538695  energy(sigma->0) =     -653.94843952


--------------------------------------------------------------------------------------------------------




[...]




--------------------------------------- Iteration     60(   5)  ---------------------------------------


    POTLOK:  cpu time    0.1756: real time    0.1761
    SETDIJ:  cpu time    0.0396: real time    0.0396
     EDDAV:  cpu time   42.2022: real time   42.5920
       DOS:  cpu time    0.0054: real time    0.0054
    CHARGE:  cpu time    1.6931: real time    1.6958
    MIXING:  cpu time    0.0070: real time    0.0070
    --------------------------------------------
      LOOP:  cpu time   44.1229: real time   44.5158

 eigenvalue-minimisations  :  4904
 total energy-change (2. order) : 0.5966285E-08  (-0.6047515E-08)
 number of electron     454.0000017 magnetization 
 augmentation part       89.8079395 magnetization 

 eigenvalues of (default mixing * dielectric matrix)
  average eigenvalue GAMMA=   1.2183
  2.2714  1.0552  0.8927  0.6541

  free energy =  -0.658601827415E+03  energy without entropy=  -0.658583234664E+03


--------------------------------------------------------------------------------------------------------




--------------------------------------- Iteration     60(   6)  ---------------------------------------


    POTLOK:  cpu time    0.1753: real time    0.1762
    SETDIJ:  cpu time    0.0395: real time    0.0395
     EDDAV:  cpu time   37.5325: real time   37.9177
       DOS:  cpu time    0.0054: real time    0.0054
    CHARGE:  cpu time    1.6846: real time    1.7016
    MIXING:  cpu time    0.0071: real time    0.0071
    --------------------------------------------
      LOOP:  cpu time   39.4444: real time   39.8476

 eigenvalue-minimisations  :  4240
 total energy-change (2. order) : 0.2612069E-08  (-0.1697319E-08)
 number of electron     454.0000017 magnetization 
 augmentation part       89.8079388 magnetization 

 eigenvalues of (default mixing * dielectric matrix)
  average eigenvalue GAMMA=   1.3071
  2.3570  1.3687  1.2641  0.9952  0.5508

  free energy =  -0.658601827412E+03  energy without entropy=  -0.658583235575E+03


--------------------------------------------------------------------------------------------------------




--------------------------------------- Iteration     60(   7)  ---------------------------------------


    POTLOK:  cpu time    0.1751: real time    0.1763
    SETDIJ:  cpu time    0.0392: real time    0.0394
     EDDAV:  cpu time   34.2581: real time   34.3156
       DOS:  cpu time    0.0056: real time    0.0056
    CHARGE:  cpu time    1.7002: real time    1.7075
    MIXING:  cpu time    0.0075: real time    0.0075
    --------------------------------------------
      LOOP:  cpu time   36.1857: real time   36.2519

 eigenvalue-minimisations  :  3784
 total energy-change (2. order) : 0.2197339E-08  (-0.3836951E-09)
 number of electron     454.0000017 magnetization 
 augmentation part       89.8079393 magnetization 

 eigenvalues of (default mixing * dielectric matrix)
  average eigenvalue GAMMA=   1.2343
  2.3301  1.3957  1.1410  0.9926  0.9926  0.5539

  free energy =  -0.658601827410E+03  energy without entropy=  -0.658583235500E+03


--------------------------------------------------------------------------------------------------------




--------------------------------------- Iteration     60(   8)  ---------------------------------------


    POTLOK:  cpu time    0.1765: real time    0.1770
    SETDIJ:  cpu time    0.0395: real time    0.0395
     EDDAV:  cpu time   25.7220: real time   26.0046
       DOS:  cpu time    0.0044: real time    0.0044
    --------------------------------------------
      LOOP:  cpu time   25.9424: real time   26.2254

 eigenvalue-minimisations  :  2552
 total energy-change (2. order) : 0.1455192E-09  (-0.4641678E-10)
 number of electron     454.0000017 magnetization 
 augmentation part       89.8079393 magnetization 

  free energy =  -0.658601827410E+03  energy without entropy=  -0.658583235428E+03


--------------------------------------------------------------------------------------------------------




------------------------ aborting loop because EDIFF is reached ----------------------------------------


    CHARGE:  cpu time    1.6945: real time    1.6980
    FORLOC:  cpu time    0.0884: real time    0.0885
    FORNL :  cpu time    6.4008: real time    6.4103
    STRESS:  cpu time   19.2219: real time   19.2550
    FORCOR:  cpu time    0.2596: real time    0.2599
    FORHAR:  cpu time    0.1208: real time    0.1208
    MIXING:  cpu time    0.0075: real time    0.0075
    OFIELD:  cpu time    0.0001: real time    0.0001

  FORCE on cell =-STRESS in cart. coord.  units (eV):
  Direction    XX          YY          ZZ          XY          YZ          ZX
  --------------------------------------------------------------------------------------
  Alpha Z  1612.12532  1612.12532  1612.12532
  Ewald  117319.27378117299.17412************    65.76077  -101.43160  -109.15520
  Hartree124308.48909124301.68009************    22.68513   -37.71461   -35.52145
  E(xc)   -1780.48088 -1780.55381 -1784.95175     0.24374    -0.36008    -0.41677
  Local  ************************254539.28711   -82.63407   130.62864   134.68614
  n-local -1611.51978 -1610.86477 -1622.24926    -2.49134     3.66498     4.29253
  augment   537.25987   537.29543   523.13592    -0.10840     0.15307     0.18984
  Kinetic  5947.84286  5948.87937  5876.28011    -3.43868     5.21461     5.80774
  Fock        0.00000     0.00000     0.00000     0.00000     0.00000     0.00000
  -------------------------------------------------------------------------------------
  Total     -32.42635   -32.56429   -13.32214     0.01715     0.15503    -0.11718
  in kB     -27.37012   -27.48656   -11.24483     0.01447     0.13085    -0.09891
  external pressure =      -22.03 kB  Pullay stress =        0.00 kB



--------------------------------------------------------------------------------------------------------



  FREE ENERGIE OF THE ION-ELECTRON SYSTEM (eV)
  ---------------------------------------------------
  free  energy   TOTEN  =      -658.60182741 eV

  energy  without entropy=     -658.58323543  energy(sigma->0) =     -658.59253142
 
 d Force = 0.4473564E-05[ 0.391E-05, 0.504E-05]  d Energy = 0.4080699E-05 0.393E-06
 d Force = 0.1811388E+00[ 0.181E+00, 0.181E+00]  d Ewald  = 0.1811388E+00 0.407E-09


--------------------------------------------------------------------------------------------------------


    POTLOK:  cpu time    0.2199: real time    0.2200


--------------------------------------------------------------------------------------------------------


 stress matrix after NEB project (eV)
    -32.42635      0.01715     -0.11718
      0.01715    -32.56429      0.15503
     -0.11718      0.15503    -13.32214
  FORCES: max atom, RMS     0.017592    0.003745
  FORCE total and by dimension    0.030194    0.014179
  Stress total and by dimension   47.848271   32.564293
 Conjugate gradient step on ions:
 trial-energy change:   -0.000004  1 .order   -0.000004   -0.000005   -0.000004
  (g-gl).g = 0.941E-04      g.g   = 0.571E-04  gl.gl    = 0.117E-03
 g(Force)  = 0.571E-04   g(Stress)= 0.000E+00 ortho     = 0.523E-06
 gamma     =   0.80297
 trial     =   0.08770
 opt step  =   0.35079  (harmonic =   0.38911) maximal distance =0.00024685
 next E    =  -658.601835   (d E  =  -0.00001)


--------------------------------------------------------------------------------------------------------


    WAVPRE:  cpu time    0.1167: real time    0.1212
    FEWALD:  cpu time    0.0043: real time    0.0043

 real space projection operators:
  total allocation   :      12555.47 KBytes
  max/ min on nodes  :       1676.83       1316.33

    ORTHCH:  cpu time    2.6646: real time    2.6705
     LOOP+:  cpu time  351.3656: real time  353.7855


--------------------------------------- Iteration     61(   1)  ---------------------------------------


    POTLOK:  cpu time    0.1831: real time    0.2040
    SETDIJ:  cpu time    0.0396: real time    0.0396
     EDDAV:  cpu time   38.2175: real time   38.6502
       DOS:  cpu time    0.0048: real time    0.0048
    CHARGE:  cpu time    1.6954: real time    1.6969
    MIXING:  cpu time    0.0057: real time    0.0057
    --------------------------------------------
      LOOP:  cpu time   40.1464: real time   40.6015

 eigenvalue-minimisations  :  4352
 total energy-change (2. order) :-0.9802025E-06  (-0.2335939E-03)
 number of electron     454.0000017 magnetization 
 augmentation part       89.8078911 magnetization 

  free energy =  -0.658601828390E+03  energy without entropy=  -0.658583235860E+03


--------------------------------------------------------------------------------------------------------




--------------------------------------- Iteration     61(   2)  ---------------------------------------


    POTLOK:  cpu time    0.1772: real time    0.1788
    SETDIJ:  cpu time    0.0395: real time    0.0395
     EDDAV:  cpu time   42.2432: real time   42.6143
       DOS:  cpu time    0.0050: real time    0.0050
    CHARGE:  cpu time    1.6845: real time    1.7001
    MIXING:  cpu time    0.0060: real time    0.0060
    --------------------------------------------
      LOOP:  cpu time   44.1554: real time   44.5437

 eigenvalue-minimisations  :  4936
 total energy-change (2. order) :-0.5703267E-05  (-0.7164018E-05)
 number of electron     454.0000017 magnetization 
 augmentation part       89.8078855 magnetization 

 eigenvalues of (default mixing * dielectric matrix)
  average eigenvalue GAMMA=   0.9652
  0.9652

  free energy =  -0.658601834094E+03  energy without entropy=  -0.658583243832E+03


--------------------------------------------------------------------------------------------------------




--------------------------------------- Iteration     61(   3)  ---------------------------------------


    POTLOK:  cpu time    0.1765: real time    0.1769
    SETDIJ:  cpu time    0.0392: real time    0.0392
     EDDAV:  cpu time   43.9613: real time   44.0506
       DOS:  cpu time    0.0052: real time    0.0053
    CHARGE:  cpu time    1.6912: real time    1.6942
    MIXING:  cpu time    0.0060: real time    0.0060
    --------------------------------------------
      LOOP:  cpu time   45.8794: real time   45.9721

 eigenvalue-minimisations  :  5184
 total energy-change (2. order) : 0.2894812E-06  (-0.2697356E-06)
 number of electron     454.0000017 magnetization 
 augmentation part       89.8078841 magnetization 

 eigenvalues of (default mixing * dielectric matrix)
  average eigenvalue GAMMA=   1.2747
  1.1789  1.3704

  free energy =  -0.658601833804E+03  energy without entropy=  -0.658583240048E+03


--------------------------------------------------------------------------------------------------------




--------------------------------------- Iteration     61(   4)  ---------------------------------------


    POTLOK:  cpu time    0.1755: real time    0.1759
    SETDIJ:  cpu time    0.0396: real time    0.0396
     EDDAV:  cpu time   42.6438: real time   42.9521
       DOS:  cpu time    0.0052: real time    0.0053
    CHARGE:  cpu time    1.6902: real time    1.6931
    MIXING:  cpu time    0.0065: real time    0.0065
    --------------------------------------------
      LOOP:  cpu time   44.5607: real time   44.8724

 eigenvalue-minimisations  :  4968
 total energy-change (2. order) : 0.3013702E-07  (-0.9055658E-07)
 number of electron     454.0000017 magnetization 
 augmentation part       89.8078839 magnetization 

 eigenvalues of (default mixing * dielectric matrix)
  average eigenvalue GAMMA=   1.3270
  2.0388  1.1000  0.8422

  free energy =  -0.658601833774E+03  energy without entropy=  -0.658583244421E+03


--------------------------------------------------------------------------------------------------------




--------------------------------------- Iteration     61(   5)  ---------------------------------------


    POTLOK:  cpu time    0.1763: real time    0.1767
    SETDIJ:  cpu time    0.0395: real time    0.0395
     EDDAV:  cpu time   42.4363: real time   42.9861
       DOS:  cpu time    0.0048: real time    0.0048
    CHARGE:  cpu time    1.6929: real time    1.6960
    MIXING:  cpu time    0.0066: real time    0.0066
    --------------------------------------------
      LOOP:  cpu time   44.3565: real time   44.9097

 eigenvalue-minimisations  :  4960
 total energy-change (2. order) : 0.2991146E-07  (-0.5500747E-07)
 number of electron     454.0000017 magnetization 
 augmentation part       89.8078876 magnetization 

 eigenvalues of (default mixing * dielectric matrix)
  average eigenvalue GAMMA=   1.2174
  2.2680  1.0551  0.8933  0.6533

  free energy =  -0.658601833744E+03  energy without entropy=  -0.658583239107E+03


--------------------------------------------------------------------------------------------------------




--------------------------------------- Iteration     61(   6)  ---------------------------------------


    POTLOK:  cpu time    0.1754: real time    0.1758
    SETDIJ:  cpu time    0.0396: real time    0.0396
     EDDAV:  cpu time   42.4447: real time   42.8120
       DOS:  cpu time    0.0052: real time    0.0053
    CHARGE:  cpu time    1.6467: real time    1.7671
    MIXING:  cpu time    0.0070: real time    0.0070
    --------------------------------------------
      LOOP:  cpu time   44.3187: real time   44.8067

 eigenvalue-minimisations  :  4960
 total energy-change (2. order) : 0.2110028E-07  (-0.1540168E-07)
 number of electron     454.0000017 magnetization 
 augmentation part       89.8078855 magnetization 

 eigenvalues of (default mixing * dielectric matrix)
  average eigenvalue GAMMA=   1.3109
  2.3488  1.4179  1.2423  0.9947  0.5508

  free energy =  -0.658601833723E+03  energy without entropy=  -0.658583241823E+03


--------------------------------------------------------------------------------------------------------




--------------------------------------- Iteration     61(   7)  ---------------------------------------


    POTLOK:  cpu time    0.1754: real time    0.1761
    SETDIJ:  cpu time    0.0397: real time    0.0397
     EDDAV:  cpu time   42.9798: real time   43.0880
       DOS:  cpu time    0.0052: real time    0.0053
    CHARGE:  cpu time    1.6925: real time    1.6954
    MIXING:  cpu time    0.0072: real time    0.0078
    --------------------------------------------
      LOOP:  cpu time   44.8998: real time   45.0124

 eigenvalue-minimisations  :  5048
 total energy-change (2. order) : 0.2910383E-08  (-0.3714713E-08)
 number of electron     454.0000017 magnetization 
 augmentation part       89.8078868 magnetization 

 eigenvalues of (default mixing * dielectric matrix)
  average eigenvalue GAMMA=   1.2277
  2.3093  1.4944  1.1288  0.9398  0.9398  0.5542

  free energy =  -0.658601833720E+03  energy without entropy=  -0.658583241606E+03


--------------------------------------------------------------------------------------------------------




--------------------------------------- Iteration     61(   8)  ---------------------------------------


    POTLOK:  cpu time    0.1755: real time    0.1759
    SETDIJ:  cpu time    0.0395: real time    0.0395
     EDDAV:  cpu time   35.7130: real time   35.9772
       DOS:  cpu time    0.0049: real time    0.0049
    --------------------------------------------
      LOOP:  cpu time   35.9329: real time   36.1975

 eigenvalue-minimisations  :  3984
 total energy-change (2. order) :-0.8876668E-09  (-0.3838283E-09)
 number of electron     454.0000017 magnetization 
 augmentation part       89.8078868 magnetization 

  free energy =  -0.658601833721E+03  energy without entropy=  -0.658583241390E+03


--------------------------------------------------------------------------------------------------------




------------------------ aborting loop because EDIFF is reached ----------------------------------------


    CHARGE:  cpu time    1.6946: real time    1.6974
    FORLOC:  cpu time    0.0883: real time    0.0884
    FORNL :  cpu time    6.3996: real time    6.4097
    STRESS:  cpu time   19.2018: real time   19.2414
    FORCOR:  cpu time    0.2601: real time    0.2601
    FORHAR:  cpu time    0.1205: real time    0.1213
    MIXING:  cpu time    0.0075: real time    0.0075
    OFIELD:  cpu time    0.0001: real time    0.0001

  FORCE on cell =-STRESS in cart. coord.  units (eV):
  Direction    XX          YY          ZZ          XY          YZ          ZX
  --------------------------------------------------------------------------------------
  Alpha Z  1612.12532  1612.12532  1612.12532
  Ewald  117318.69009117298.63897************    65.76280  -101.44065  -109.12402
  Hartree124307.96096124301.18071************    22.69438   -37.72405   -35.50842
  E(xc)   -1780.47947 -1780.55222 -1784.94982     0.24369    -0.36007    -0.41674
  Local  ************************254538.20248   -82.64976   130.64895   134.64814
  n-local -1611.51404 -1610.85580 -1622.25120    -2.49291     3.66677     4.28877
  augment   537.26037   537.29607   523.13587    -0.10816     0.15297     0.18952
  Kinetic  5947.83949  5948.87620  5876.26046    -3.43881     5.21211     5.81112
  Fock        0.00000     0.00000     0.00000     0.00000     0.00000     0.00000
  -------------------------------------------------------------------------------------
  Total     -32.42914   -32.56185   -13.33959     0.01123     0.15605    -0.11164
  in kB     -27.37248   -27.48449   -11.25956     0.00948     0.13172    -0.09423
  external pressure =      -22.04 kB  Pullay stress =        0.00 kB



--------------------------------------------------------------------------------------------------------



  FREE ENERGIE OF THE ION-ELECTRON SYSTEM (eV)
  ---------------------------------------------------
  free  energy   TOTEN  =      -658.60183372 eV

  energy  without entropy=     -658.58324139  energy(sigma->0) =     -658.59253756
 
 d Force = 0.7154520E-05[ 0.259E-05, 0.117E-04]  d Energy = 0.6310962E-05 0.844E-06
 d Force = 0.5433910E+00[ 0.543E+00, 0.543E+00]  d Ewald  = 0.5433917E+00-0.636E-06


--------------------------------------------------------------------------------------------------------


    POTLOK:  cpu time    0.2197: real time    0.2197


--------------------------------------------------------------------------------------------------------


 stress matrix after NEB project (eV)
    -32.42914      0.01123     -0.11164
      0.01123    -32.56185      0.15605
     -0.11164      0.15605    -13.33959
  FORCES: max atom, RMS     0.008488    0.003003
  FORCE total and by dimension    0.024209    0.007416
  Stress total and by dimension   47.853336   32.561847


--------------------------------------------------------------------------------------------------------


  
 reached required accuracy - stopping structural energy minimisation
     LOOP+:  cpu time  372.3877: real time  375.1172
    4ORBIT:  cpu time    0.0000: real time    0.0000

 total amount of memory used by VASP MPI-rank0    71891. kBytes
=======================================================================

   base      :      30000. kBytes
   nonlr-proj:       4721. kBytes
   fftplans  :       3241. kBytes
   grid      :       5415. kBytes
   one-center:        139. kBytes
   wavefun   :      28375. kBytes
 
  
  
 General timing and accounting informations for this job:
 ========================================================
  
                  Total CPU time used (sec):    48063.453
                            User time (sec):    47925.220
                          System time (sec):      138.234
                         Elapsed time (sec):    48487.534
  
                   Maximum memory used (kb):     1532228.
                   Average memory used (kb):           0.
  
                          Minor page faults:      8788277
                          Major page faults:            0
                 Voluntary context switches:       457553
