 running on   20 total cores
 distrk:  each k-point on   20 cores,    1 groups
 distr:  one band on    1 cores,   20 groups
 using from now: INCAR     
 vasp.5.4.4.18Apr17-6-g9f103f2a35 (build Dec 11 2018 16:16:58) complex          
  
 POSCAR found type information on POSCAR  Ni S 
 POSCAR found :  2 types and      56 ions
 scaLAPACK will be used

 ----------------------------------------------------------------------------- 
|                                                                             |
|           W    W    AA    RRRRR   N    N  II  N    N   GGGG   !!!           |
|           W    W   A  A   R    R  NN   N  II  NN   N  G    G  !!!           |
|           W    W  A    A  R    R  N N  N  II  N N  N  G       !!!           |
|           W WW W  AAAAAA  RRRRR   N  N N  II  N  N N  G  GGG   !            |
|           WW  WW  A    A  R   R   N   NN  II  N   NN  G    G                |
|           W    W  A    A  R    R  N    N  II  N    N   GGGG   !!!           |
|                                                                             |
|      For optimal performance we recommend to set                            |
|        NCORE= 4 - approx SQRT( number of cores)                             |
|      NCORE specifies how many cores store one orbital (NPAR=cpu/NCORE).     |
|      This setting can  greatly improve the performance of VASP for DFT.     |
|      The default,   NCORE=1            might be grossly inefficient         |
|      on modern multi-core architectures or massively parallel machines.     |
|      Do your own testing !!!!                                               |
|      Unfortunately you need to use the default for GW and RPA calculations. |
|      (for HF NCORE is supported but not extensively tested yet)             |
|                                                                             |
 ----------------------------------------------------------------------------- 

 LDA part: xc-table for Pade appr. of Perdew
 POSCAR, INCAR and KPOINTS ok, starting setup
 FFT: planning ...
 WAVECAR not read
 entering main loop
       N       E                     dE             d eps       ncg     rms          rms(c)
DAV:   1     0.283537853418E+04    0.28354E+04   -0.16129E+05  1520   0.881E+02
DAV:   2    -0.143086462185E+03   -0.29785E+04   -0.28771E+04  1660   0.274E+02
DAV:   3    -0.303347410419E+03   -0.16026E+03   -0.15301E+03  1800   0.771E+01
DAV:   4    -0.307097881399E+03   -0.37505E+01   -0.36987E+01  1680   0.129E+01
DAV:   5    -0.307182146148E+03   -0.84265E-01   -0.84204E-01  1720   0.146E+00    0.544E+01
RMM:   6    -0.389913354350E+03   -0.82731E+02   -0.58695E+02  1522   0.652E+01    0.129E+02
RMM:   7    -0.330319018121E+03    0.59594E+02   -0.27355E+02  1528   0.425E+01    0.792E+01
RMM:   8    -0.293835813415E+03    0.36483E+02   -0.10524E+02  1528   0.265E+01    0.924E+01
RMM:   9    -0.266483098025E+03    0.27353E+02   -0.44771E+01  1528   0.180E+01    0.460E+01
RMM:  10    -0.266688737205E+03   -0.20564E+00   -0.59457E+00  1528   0.599E+00    0.640E+01
RMM:  11    -0.260529333053E+03    0.61594E+01   -0.50659E+00  1528   0.550E+00    0.412E+01
RMM:  12    -0.258949007698E+03    0.15803E+01   -0.31561E+00  1527   0.424E+00    0.382E+01
RMM:  13    -0.256903242499E+03    0.20458E+01   -0.28638E+00  1528   0.418E+00    0.295E+01
RMM:  14    -0.255869347403E+03    0.10339E+01   -0.11632E+00  1528   0.264E+00    0.259E+01
RMM:  15    -0.254558435431E+03    0.13109E+01   -0.91010E-01  1528   0.231E+00    0.170E+01
RMM:  16    -0.254153197911E+03    0.40524E+00   -0.63923E-01  1528   0.191E+00    0.991E+00
RMM:  17    -0.255036002348E+03   -0.88280E+00   -0.11874E+00  1528   0.260E+00    0.212E+01
RMM:  18    -0.254362568309E+03    0.67343E+00   -0.79591E-01  1526   0.227E+00    0.137E+01
RMM:  19    -0.254167450171E+03    0.19512E+00   -0.38817E-01  1528   0.154E+00    0.802E+00
RMM:  20    -0.255147686433E+03   -0.98024E+00   -0.54026E-01  1528   0.174E+00    0.161E+01
RMM:  21    -0.255484179942E+03   -0.33649E+00   -0.44966E-01  1525   0.157E+00    0.112E+01
RMM:  22    -0.255516915435E+03   -0.32735E-01   -0.25648E-01  1528   0.122E+00    0.767E+00
RMM:  23    -0.255726557722E+03   -0.20964E+00   -0.18262E-01  1528   0.988E-01    0.907E+00
RMM:  24    -0.256246414936E+03   -0.51986E+00   -0.26576E-01  1525   0.107E+00    0.678E+00
RMM:  25    -0.256373669612E+03   -0.12725E+00   -0.12679E-01  1528   0.836E-01    0.413E+00
RMM:  26    -0.256462694692E+03   -0.89025E-01   -0.25806E-02  1528   0.362E-01    0.451E+00
RMM:  27    -0.256679461214E+03   -0.21677E+00   -0.14714E-02  1525   0.267E-01    0.460E+00
RMM:  28    -0.256807116657E+03   -0.12766E+00   -0.10775E-02  1528   0.242E-01    0.464E+00
RMM:  29    -0.257302959480E+03   -0.49584E+00   -0.61993E-02  1525   0.493E-01    0.458E+00
RMM:  30    -0.258000303298E+03   -0.69734E+00   -0.99675E-02  1525   0.572E-01    0.252E+00
RMM:  31    -0.258382556093E+03   -0.38225E+00   -0.47426E-02  1525   0.426E-01    0.323E+00
RMM:  32    -0.259183870444E+03   -0.80131E+00   -0.91684E-02  1522   0.444E-01    0.242E+00
RMM:  33    -0.259388434905E+03   -0.20456E+00   -0.21111E-02  1527   0.285E-01    0.210E+00
RMM:  34    -0.259815095376E+03   -0.42666E+00   -0.34286E-02  1524   0.311E-01    0.265E+00
RMM:  35    -0.260382683211E+03   -0.56759E+00   -0.51723E-02  1524   0.321E-01    0.172E+00
RMM:  36    -0.260556252044E+03   -0.17357E+00   -0.11257E-02  1526   0.188E-01    0.140E+00
RMM:  37    -0.261013599146E+03   -0.45735E+00   -0.34510E-02  1524   0.240E-01    0.169E+00
RMM:  38    -0.261209427078E+03   -0.19583E+00   -0.12983E-02  1525   0.184E-01    0.100E+00
RMM:  39    -0.261422538677E+03   -0.21311E+00   -0.14837E-02  1525   0.200E-01    0.139E+00
RMM:  40    -0.261861086516E+03   -0.43855E+00   -0.50057E-02  1524   0.266E-01    0.880E-01
RMM:  41    -0.261969487892E+03   -0.10840E+00   -0.92845E-03  1527   0.156E-01    0.100E+00
RMM:  42    -0.262209498713E+03   -0.24001E+00   -0.16846E-02  1522   0.163E-01    0.811E-01
RMM:  43    -0.262261223678E+03   -0.51725E-01   -0.32016E-03  1528   0.103E-01    0.611E-01
RMM:  44    -0.262371827261E+03   -0.11060E+00   -0.54303E-03  1525   0.110E-01    0.711E-01
RMM:  45    -0.262422566043E+03   -0.50739E-01   -0.25250E-03  1525   0.878E-02    0.377E-01
RMM:  46    -0.262454694360E+03   -0.32128E-01   -0.12887E-03  1528   0.642E-02    0.454E-01
RMM:  47    -0.262517408110E+03   -0.62714E-01   -0.32286E-03  1524   0.684E-02    0.212E-01
RMM:  48    -0.262528189540E+03   -0.10781E-01   -0.49299E-04  1528   0.372E-02    0.210E-01
RMM:  49    -0.262557665129E+03   -0.29476E-01   -0.15749E-03  1522   0.457E-02    0.229E-01
RMM:  50    -0.262563887824E+03   -0.62227E-02   -0.34726E-04  1525   0.307E-02    0.134E-01
RMM:  51    -0.262572418488E+03   -0.85307E-02   -0.55754E-04  1524   0.340E-02    0.194E-01
RMM:  52    -0.262574386123E+03   -0.19676E-02   -0.17383E-04  1526   0.261E-02    0.846E-02
RMM:  53    -0.262578253454E+03   -0.38673E-02   -0.27269E-04  1525   0.247E-02    0.145E-01
RMM:  54    -0.262580302429E+03   -0.20490E-02   -0.16149E-04  1523   0.196E-02    0.665E-02
RMM:  55    -0.262581321707E+03   -0.10193E-02   -0.71201E-05  1526   0.142E-02    0.915E-02
RMM:  56    -0.262581929060E+03   -0.60735E-03   -0.46534E-05  1518   0.134E-02    0.634E-02
RMM:  57    -0.262583025710E+03   -0.10967E-02   -0.74422E-05  1520   0.119E-02    0.654E-02
RMM:  58    -0.262584308731E+03   -0.12830E-02   -0.10005E-04  1520   0.131E-02    0.595E-02
RMM:  59    -0.262584839781E+03   -0.53105E-03   -0.28957E-05  1516   0.854E-03    0.255E-02
RMM:  60    -0.262585695457E+03   -0.85568E-03   -0.28403E-05  1506   0.742E-03    0.401E-02
RMM:  61    -0.262586083575E+03   -0.38812E-03   -0.20730E-05  1515   0.963E-03    0.726E-02
RMM:  62    -0.262586128843E+03   -0.45268E-04   -0.11171E-05  1467   0.739E-03    0.157E-02
RMM:  63    -0.262586581861E+03   -0.45302E-03   -0.18296E-05  1379   0.551E-03    0.263E-02
RMM:  64    -0.262586774655E+03   -0.19279E-03   -0.79077E-06  1232   0.441E-03    0.112E-02
RMM:  65    -0.262586996147E+03   -0.22149E-03   -0.10565E-05  1243   0.397E-03    0.182E-02
RMM:  66    -0.262586928601E+03    0.67546E-04   -0.27983E-06  1027   0.416E-03    0.326E-02
RMM:  67    -0.262587053083E+03   -0.12448E-03   -0.43214E-06  1085   0.364E-03    0.188E-02
RMM:  68    -0.262587035996E+03    0.17086E-04   -0.18590E-06   984   0.236E-03    0.987E-03
RMM:  69    -0.262587109000E+03   -0.73004E-04   -0.43013E-06  1085   0.263E-03    0.990E-03
RMM:  70    -0.262587149583E+03   -0.40583E-04   -0.10781E-06   969   0.202E-03    0.831E-03
RMM:  71    -0.262587252136E+03   -0.10255E-03   -0.21461E-06  1015   0.222E-03    0.108E-02
RMM:  72    -0.262587223580E+03    0.28556E-04   -0.59748E-07   929   0.166E-03    0.467E-03
RMM:  73    -0.262587263272E+03   -0.39692E-04   -0.36525E-07   924   0.113E-03    0.418E-03
RMM:  74    -0.262587282882E+03   -0.19610E-04   -0.29848E-07   920   0.102E-03    0.262E-03
RMM:  75    -0.262587327203E+03   -0.44322E-04   -0.45539E-07   932   0.104E-03    0.368E-03
RMM:  76    -0.262587340950E+03   -0.13746E-04   -0.15877E-07   894   0.926E-04    0.412E-03
RMM:  77    -0.262587359665E+03   -0.18716E-04   -0.19360E-07   897   0.750E-04    0.218E-03
RMM:  78    -0.262587370047E+03   -0.10382E-04   -0.11540E-07   852   0.540E-04    0.250E-03
RMM:  79    -0.262587377688E+03   -0.76407E-05   -0.10851E-07   870   0.539E-04    0.168E-03
RMM:  80    -0.262587381174E+03   -0.34864E-05   -0.55509E-08   621   0.409E-04    0.893E-04
RMM:  81    -0.262587380990E+03    0.18365E-06   -0.22471E-08   536   0.363E-04
   1 F= -.26258738E+03 E0= -.26224987E+03  d E =-.262587E+03  mag=    40.3138
 curvature:   0.00 expect dE= 0.000E+00 dE for cont linesearch  0.000E+00
 trial: gam= 0.00000 g(F)=  0.208E-02 g(S)=  0.000E+00 ort = 0.000E+00 (trialstep = 0.100E+01)
 search vector abs. value=  0.208E-02
 bond charge predicted
       N       E                     dE             d eps       ncg     rms          rms(c)
DAV:   1    -0.262589151778E+03   -0.17706E-02   -0.18063E-01  1600   0.690E-01    0.125E-01
RMM:   2    -0.262590724697E+03   -0.15729E-02   -0.26510E-03  1528   0.141E-01    0.837E-01
RMM:   3    -0.262588946637E+03    0.17781E-02   -0.10997E-03  1530   0.870E-02    0.292E-01
RMM:   4    -0.262589481548E+03   -0.53491E-03   -0.47494E-04  1528   0.531E-02    0.342E-01
RMM:   5    -0.262589430512E+03    0.51036E-04   -0.19232E-04  1528   0.363E-02    0.339E-01
RMM:   6    -0.262589212465E+03    0.21805E-03   -0.11404E-04  1527   0.285E-02    0.705E-02
RMM:   7    -0.262589288838E+03   -0.76372E-04   -0.34415E-05  1522   0.143E-02    0.705E-02
RMM:   8    -0.262589318487E+03   -0.29649E-04   -0.30718E-05  1523   0.133E-02    0.120E-01
RMM:   9    -0.262589282392E+03    0.36094E-04   -0.22464E-05  1517   0.123E-02    0.599E-02
RMM:  10    -0.262589288065E+03   -0.56729E-05   -0.10799E-05  1506   0.827E-03    0.435E-02
RMM:  11    -0.262589292790E+03   -0.47245E-05   -0.80454E-06  1465   0.691E-03    0.593E-02
RMM:  12    -0.262589284529E+03    0.82604E-05   -0.67807E-06  1424   0.665E-03    0.382E-02
RMM:  13    -0.262589282408E+03    0.21214E-05   -0.39760E-06  1147   0.537E-03    0.149E-02
RMM:  14    -0.262589282762E+03   -0.35387E-06   -0.90114E-07   886   0.253E-03
   2 F= -.26258928E+03 E0= -.26225172E+03  d E =-.190177E-02  mag=    40.3142
 ZBRENT: can't locate minimum, use default step
 trial-energy change:   -0.001902  1 .order   -0.001928   -0.002082   -0.001773
 step:   4.0000(harm=  6.7386)  dis= 0.00556  next Energy=  -262.594396 (dE=-0.701E-02)
 bond charge predicted
       N       E                     dE             d eps       ncg     rms          rms(c)
DAV:   1    -0.262591929431E+03   -0.26470E-02   -0.16256E+00  1600   0.207E+00    0.377E-01
RMM:   2    -0.262606845337E+03   -0.14916E-01   -0.24034E-02  1528   0.426E-01    0.255E+00
RMM:   3    -0.262591963123E+03    0.14882E-01   -0.99846E-03  1530   0.262E-01    0.883E-01
RMM:   4    -0.262595134526E+03   -0.31714E-02   -0.42482E-03  1528   0.159E-01    0.102E+00
RMM:   5    -0.262594893362E+03    0.24116E-03   -0.17481E-03  1528   0.109E-01    0.104E+00
RMM:   6    -0.262592748964E+03    0.21444E-02   -0.10492E-03  1528   0.868E-02    0.209E-01
RMM:   7    -0.262593196263E+03   -0.44730E-03   -0.31713E-04  1528   0.435E-02    0.214E-01
RMM:   8    -0.262593431938E+03   -0.23567E-03   -0.26848E-04  1528   0.394E-02    0.378E-01
RMM:   9    -0.262593114098E+03    0.31784E-03   -0.19686E-04  1528   0.365E-02    0.196E-01
RMM:  10    -0.262593128104E+03   -0.14006E-04   -0.98877E-05  1528   0.250E-02    0.127E-01
RMM:  11    -0.262593180765E+03   -0.52661E-04   -0.78232E-05  1528   0.215E-02    0.173E-01
RMM:  12    -0.262593133390E+03    0.47375E-04   -0.62847E-05  1526   0.201E-02    0.110E-01
RMM:  13    -0.262593119015E+03    0.14374E-04   -0.35436E-05  1520   0.155E-02    0.433E-02
RMM:  14    -0.262593124514E+03   -0.54986E-05   -0.78828E-06  1396   0.674E-03    0.206E-02
RMM:  15    -0.262593141638E+03   -0.17124E-04   -0.44687E-06  1302   0.525E-03    0.497E-02
RMM:  16    -0.262593141463E+03    0.17467E-06   -0.27281E-06  1000   0.463E-03
   3 F= -.26259314E+03 E0= -.26225539E+03  d E =-.576047E-02  mag=    40.3152
 curvature:  -2.60 expect dE=-0.213E-02 dE for cont linesearch -0.112E-02
 ZBRENT: increasing intervall
 opt :  10.0000  next Energy=  -262.593838 (dE=-0.646E-02)
 bond charge predicted
       N       E                     dE             d eps       ncg     rms          rms(c)
DAV:   1    -0.262587976780E+03    0.51649E-02   -0.65033E+00  1560   0.414E+00    0.751E-01
RMM:   2    -0.262647848460E+03   -0.59872E-01   -0.94838E-02  1528   0.847E-01    0.510E+00
RMM:   3    -0.262590763954E+03    0.57085E-01   -0.39272E-02  1530   0.519E-01    0.172E+00
RMM:   4    -0.262601752136E+03   -0.10988E-01   -0.17030E-02  1528   0.317E-01    0.203E+00
RMM:   5    -0.262600388858E+03    0.13633E-02   -0.68839E-03  1528   0.218E-01    0.202E+00
RMM:   6    -0.262592327108E+03    0.80617E-02   -0.39846E-03  1528   0.168E-01    0.419E-01
RMM:   7    -0.262593381470E+03   -0.10544E-02   -0.12355E-03  1528   0.858E-02    0.432E-01
RMM:   8    -0.262594152327E+03   -0.77086E-03   -0.10824E-03  1528   0.791E-02    0.717E-01
RMM:   9    -0.262593094936E+03    0.10574E-02   -0.76063E-04  1528   0.720E-02    0.396E-01
RMM:  10    -0.262593039551E+03    0.55385E-04   -0.41224E-04  1528   0.510E-02    0.264E-01
RMM:  11    -0.262593218013E+03   -0.17846E-03   -0.31577E-04  1528   0.431E-02    0.340E-01
RMM:  12    -0.262593102552E+03    0.11546E-03   -0.25267E-04  1528   0.401E-02    0.234E-01
RMM:  13    -0.262593021681E+03    0.80871E-04   -0.15400E-04  1528   0.322E-02    0.912E-02
RMM:  14    -0.262593041326E+03   -0.19646E-04   -0.33488E-05  1521   0.140E-02    0.472E-02
RMM:  15    -0.262593105093E+03   -0.63767E-04   -0.16015E-05  1516   0.979E-03    0.113E-01
RMM:  16    -0.262593109279E+03   -0.41853E-05   -0.12709E-05  1508   0.929E-03    0.485E-02
RMM:  17    -0.262593132257E+03   -0.22978E-04   -0.64139E-06  1420   0.637E-03    0.211E-02
RMM:  18    -0.262593168816E+03   -0.36559E-04   -0.34400E-06  1143   0.454E-03    0.409E-02
RMM:  19    -0.262593218263E+03   -0.49447E-04   -0.33277E-06  1094   0.469E-03    0.165E-02
RMM:  20    -0.262593244022E+03   -0.25759E-04   -0.14159E-06   925   0.312E-03    0.101E-02
RMM:  21    -0.262593312405E+03   -0.68384E-04   -0.13924E-06   951   0.255E-03    0.139E-02
RMM:  22    -0.262593340364E+03   -0.27958E-04   -0.74640E-07   919   0.222E-03    0.577E-03
RMM:  23    -0.262593377831E+03   -0.37467E-04   -0.49946E-07   923   0.149E-03    0.121E-02
RMM:  24    -0.262593448033E+03   -0.70202E-04   -0.77092E-07   939   0.166E-03    0.614E-03
RMM:  25    -0.262593472879E+03   -0.24847E-04   -0.28883E-07   910   0.120E-03    0.327E-03
RMM:  26    -0.262593527612E+03   -0.54733E-04   -0.40256E-07   927   0.101E-03    0.626E-03
RMM:  27    -0.262593584723E+03   -0.57111E-04   -0.43231E-07   928   0.107E-03    0.276E-03
RMM:  28    -0.262593610857E+03   -0.26134E-04   -0.16649E-07   878   0.727E-04    0.415E-03
RMM:  29    -0.262593689685E+03   -0.78828E-04   -0.68545E-07   940   0.909E-04    0.494E-03
RMM:  30    -0.262593734024E+03   -0.44339E-04   -0.39660E-07   921   0.895E-04    0.155E-03
RMM:  31    -0.262593764000E+03   -0.29976E-04   -0.20955E-07   888   0.698E-04    0.256E-03
RMM:  32    -0.262593811285E+03   -0.47285E-04   -0.42046E-07   909   0.710E-04    0.164E-03
RMM:  33    -0.262593822687E+03   -0.11402E-04   -0.83934E-08   750   0.504E-04    0.115E-03
RMM:  34    -0.262593859879E+03   -0.37192E-04   -0.35042E-07   863   0.567E-04    0.196E-03
RMM:  35    -0.262593871371E+03   -0.11493E-04   -0.10933E-07   766   0.466E-04    0.853E-04
RMM:  36    -0.262593882408E+03   -0.11037E-04   -0.77109E-08   608   0.399E-04    0.118E-03
RMM:  37    -0.262593892685E+03   -0.10276E-04   -0.10307E-07   615   0.386E-04    0.420E-04
RMM:  38    -0.262593894500E+03   -0.18154E-05   -0.14307E-08   418   0.323E-04    0.434E-04
RMM:  39    -0.262593898537E+03   -0.40375E-05   -0.29740E-08   450   0.328E-04    0.341E-04
RMM:  40    -0.262593899154E+03   -0.61615E-06   -0.34943E-09   282   0.296E-04
   4 F= -.26259390E+03 E0= -.26225591E+03  d E =-.651816E-02  mag=    40.3193
 curvature:  -1.63 expect dE=-0.427E-02 dE for cont linesearch -0.448E-03
 ZBRENT: bracketing found
 ZBRENT: interpolating
 opt :   7.3291  next Energy=  -262.594911 (dE=-0.753E-02)
 bond charge predicted
       N       E                     dE             d eps       ncg     rms          rms(c)
DAV:   1    -0.262593815472E+03    0.83065E-04   -0.12885E+00  1600   0.184E+00    0.335E-01
RMM:   2    -0.262605381111E+03   -0.11566E-01   -0.19133E-02  1528   0.380E-01    0.223E+00
RMM:   3    -0.262593810790E+03    0.11570E-01   -0.79268E-03  1530   0.234E-01    0.783E-01
RMM:   4    -0.262596384917E+03   -0.25741E-02   -0.33748E-03  1528   0.141E-01    0.918E-01
RMM:   5    -0.262596116307E+03    0.26861E-03   -0.13657E-03  1528   0.965E-02    0.910E-01
RMM:   6    -0.262594514374E+03    0.16019E-02   -0.82465E-04  1528   0.766E-02    0.196E-01
RMM:   7    -0.262594838976E+03   -0.32460E-03   -0.24464E-04  1528   0.382E-02    0.190E-01
RMM:   8    -0.262595014339E+03   -0.17536E-03   -0.21736E-04  1528   0.355E-02    0.319E-01
RMM:   9    -0.262594776603E+03    0.23774E-03   -0.16543E-04  1528   0.332E-02    0.156E-01
RMM:  10    -0.262594803469E+03   -0.26865E-04   -0.79461E-05  1528   0.224E-02    0.116E-01
RMM:  11    -0.262594841761E+03   -0.38292E-04   -0.58240E-05  1525   0.185E-02    0.166E-01
RMM:  12    -0.262594791790E+03    0.49971E-04   -0.48714E-05  1524   0.176E-02    0.101E-01
RMM:  13    -0.262594780730E+03    0.11060E-04   -0.29726E-05  1520   0.142E-02    0.396E-02
RMM:  14    -0.262594785584E+03   -0.48539E-05   -0.75591E-06  1396   0.665E-03    0.232E-02
RMM:  15    -0.262594793445E+03   -0.78610E-05   -0.36980E-06  1188   0.502E-03    0.445E-02
RMM:  16    -0.262594789543E+03    0.39018E-05   -0.21074E-06   939   0.415E-03    0.191E-02
RMM:  17    -0.262594794225E+03   -0.46815E-05   -0.12156E-06   906   0.293E-03    0.148E-02
RMM:  18    -0.262594799819E+03   -0.55943E-05   -0.96533E-07   909   0.252E-03    0.209E-02
RMM:  19    -0.262594805066E+03   -0.52474E-05   -0.85651E-07   914   0.256E-03    0.620E-03
RMM:  20    -0.262594809346E+03   -0.42796E-05   -0.31996E-07   893   0.142E-03    0.533E-03
RMM:  21    -0.262594823216E+03   -0.13870E-04   -0.37620E-07   919   0.129E-03    0.627E-03
RMM:  22    -0.262594827292E+03   -0.40767E-05   -0.16269E-07   895   0.104E-03    0.293E-03
RMM:  23    -0.262594832306E+03   -0.50135E-05   -0.81913E-08   863   0.619E-04    0.435E-03
RMM:  24    -0.262594846162E+03   -0.13856E-04   -0.13881E-07   896   0.678E-04    0.266E-03
RMM:  25    -0.262594851161E+03   -0.49984E-05   -0.55391E-08   835   0.542E-04    0.115E-03
RMM:  26    -0.262594861631E+03   -0.10470E-04   -0.59885E-08   691   0.414E-04    0.248E-03
RMM:  27    -0.262594872813E+03   -0.11183E-04   -0.70222E-08   690   0.428E-04    0.113E-03
RMM:  28    -0.262594878268E+03   -0.54549E-05   -0.22507E-08   478   0.347E-04    0.146E-03
RMM:  29    -0.262594892434E+03   -0.14166E-04   -0.11325E-07   739   0.423E-04    0.196E-03
RMM:  30    -0.262594901622E+03   -0.91872E-05   -0.66376E-08   676   0.398E-04    0.744E-04
RMM:  31    -0.262594906066E+03   -0.44443E-05   -0.16711E-08   441   0.328E-04    0.794E-04
RMM:  32    -0.262594917620E+03   -0.11554E-04   -0.87495E-08   584   0.372E-04    0.727E-04
RMM:  33    -0.262594920763E+03   -0.31427E-05   -0.13111E-08   362   0.309E-04    0.492E-04
RMM:  34    -0.262594931274E+03   -0.10511E-04   -0.12784E-07   659   0.396E-04    0.778E-04
RMM:  35    -0.262594934937E+03   -0.36629E-05   -0.30834E-08   458   0.324E-04    0.536E-04
RMM:  36    -0.262594937765E+03   -0.28281E-05   -0.26580E-08   454   0.314E-04    0.535E-04
RMM:  37    -0.262594940648E+03   -0.28826E-05   -0.17925E-08   395   0.305E-04    0.291E-04
RMM:  38    -0.262594941536E+03   -0.88773E-06   -0.69509E-09   299   0.293E-04
   5 F= -.26259494E+03 E0= -.26225707E+03  d E =-.756055E-02  mag=    40.3187
 curvature:  -3.67 expect dE=-0.462E-02 dE for cont linesearch -0.240E-06
 trial: gam= 0.61025 g(F)=  0.126E-02 g(S)=  0.000E+00 ort =-0.117E-04 (trialstep = 0.227E+01)
 search vector abs. value=  0.202E-02
 bond charge predicted
       N       E                     dE             d eps       ncg     rms          rms(c)
DAV:   1    -0.262596426228E+03   -0.14856E-02   -0.93810E-01  1600   0.158E+00    0.290E-01
RMM:   2    -0.262607568324E+03   -0.11142E-01   -0.12795E-02  1528   0.316E-01    0.234E+00
RMM:   3    -0.262595058229E+03    0.12510E-01   -0.60323E-03  1528   0.206E-01    0.536E-01
RMM:   4    -0.262598231265E+03   -0.31730E-02   -0.25580E-03  1528   0.124E-01    0.807E-01
RMM:   5    -0.262597829430E+03    0.40184E-03   -0.99848E-04  1528   0.838E-02    0.752E-01
RMM:   6    -0.262596738262E+03    0.10912E-02   -0.50337E-04  1528   0.598E-02    0.151E-01
RMM:   7    -0.262597000236E+03   -0.26197E-03   -0.14791E-04  1528   0.297E-02    0.157E-01
RMM:   8    -0.262597120274E+03   -0.12004E-03   -0.15105E-04  1528   0.298E-02    0.262E-01
RMM:   9    -0.262596956726E+03    0.16355E-03   -0.11670E-04  1528   0.282E-02    0.118E-01
RMM:  10    -0.262596973216E+03   -0.16490E-04   -0.61143E-05  1528   0.195E-02    0.807E-02
RMM:  11    -0.262596999811E+03   -0.26594E-04   -0.29485E-05  1520   0.131E-02    0.127E-01
RMM:  12    -0.262596971505E+03    0.28306E-04   -0.25039E-05  1518   0.127E-02    0.750E-02
RMM:  13    -0.262596967897E+03    0.36081E-05   -0.18345E-05  1516   0.110E-02    0.312E-02
RMM:  14    -0.262596971127E+03   -0.32301E-05   -0.37744E-06  1153   0.482E-03    0.188E-02
RMM:  15    -0.262596977717E+03   -0.65898E-05   -0.21333E-06   935   0.394E-03    0.358E-02
RMM:  16    -0.262596977591E+03    0.12602E-06   -0.14116E-06   910   0.357E-03
   6 F= -.26259698E+03 E0= -.26225910E+03  d E =-.203606E-02  mag=    40.3252
 trial-energy change:   -0.002036  1 .order   -0.002203   -0.002836   -0.001569
 step:   5.0727(harm=  5.0727)  dis= 0.00656  next Energy=  -262.598116 (dE=-0.317E-02)
 bond charge predicted
       N       E                     dE             d eps       ncg     rms          rms(c)
DAV:   1    -0.262596927286E+03    0.50430E-04   -0.14396E+00  1600   0.195E+00    0.362E-01
RMM:   2    -0.262614474316E+03   -0.17547E-01   -0.19882E-02  1528   0.394E-01    0.292E+00
RMM:   3    -0.262595176702E+03    0.19298E-01   -0.94032E-03  1528   0.257E-01    0.661E-01
RMM:   4    -0.262599728870E+03   -0.45522E-02   -0.39530E-03  1528   0.154E-01    0.993E-01
RMM:   5    -0.262599171881E+03    0.55699E-03   -0.15251E-03  1528   0.104E-01    0.934E-01
RMM:   6    -0.262597468030E+03    0.17039E-02   -0.76589E-04  1528   0.739E-02    0.186E-01
RMM:   7    -0.262597826338E+03   -0.35831E-03   -0.22653E-04  1528   0.368E-02    0.195E-01
RMM:   8    -0.262598001060E+03   -0.17472E-03   -0.23103E-04  1528   0.369E-02    0.329E-01
RMM:   9    -0.262597754948E+03    0.24611E-03   -0.17665E-04  1528   0.348E-02    0.153E-01
RMM:  10    -0.262597772240E+03   -0.17292E-04   -0.88779E-05  1528   0.235E-02    0.112E-01
RMM:  11    -0.262597800829E+03   -0.28589E-04   -0.44272E-05  1522   0.161E-02    0.146E-01
RMM:  12    -0.262597777836E+03    0.22993E-04   -0.43483E-05  1527   0.167E-02    0.872E-02
RMM:  13    -0.262597772189E+03    0.56475E-05   -0.28247E-05  1520   0.137E-02    0.386E-02
RMM:  14    -0.262597779061E+03   -0.68726E-05   -0.56620E-06  1351   0.582E-03    0.253E-02
RMM:  15    -0.262597794967E+03   -0.15906E-04   -0.32285E-06  1104   0.466E-03    0.475E-02
RMM:  16    -0.262597801911E+03   -0.69443E-05   -0.23028E-06   952   0.441E-03    0.171E-02
RMM:  17    -0.262597810382E+03   -0.84707E-05   -0.92695E-07   904   0.255E-03    0.146E-02
RMM:  18    -0.262597829908E+03   -0.19526E-04   -0.91512E-07   918   0.241E-03    0.176E-02
RMM:  19    -0.262597848963E+03   -0.19055E-04   -0.74073E-07   914   0.238E-03    0.589E-03
RMM:  20    -0.262597860267E+03   -0.11305E-04   -0.29556E-07   901   0.133E-03    0.568E-03
RMM:  21    -0.262597896815E+03   -0.36548E-04   -0.44050E-07   930   0.127E-03    0.727E-03
RMM:  22    -0.262597910646E+03   -0.13831E-04   -0.21788E-07   905   0.114E-03    0.420E-03
RMM:  23    -0.262597922777E+03   -0.12131E-04   -0.12050E-07   883   0.727E-04    0.469E-03
RMM:  24    -0.262597968535E+03   -0.45758E-04   -0.40939E-07   933   0.881E-04    0.315E-03
RMM:  25    -0.262597978696E+03   -0.10161E-04   -0.10108E-07   856   0.668E-04    0.194E-03
RMM:  26    -0.262598014091E+03   -0.35395E-04   -0.28741E-07   914   0.671E-04    0.385E-03
RMM:  27    -0.262598036303E+03   -0.22213E-04   -0.19307E-07   877   0.722E-04    0.144E-03
RMM:  28    -0.262598049179E+03   -0.12876E-04   -0.92183E-08   808   0.523E-04    0.284E-03
RMM:  29    -0.262598077305E+03   -0.28126E-04   -0.29156E-07   907   0.610E-04    0.296E-03
RMM:  30    -0.262598088672E+03   -0.11367E-04   -0.11549E-07   874   0.560E-04    0.102E-03
RMM:  31    -0.262598098624E+03   -0.99521E-05   -0.77062E-08   693   0.449E-04    0.176E-03
RMM:  32    -0.262598111295E+03   -0.12671E-04   -0.13843E-07   801   0.477E-04    0.931E-04
RMM:  33    -0.262598113874E+03   -0.25793E-05   -0.22863E-08   542   0.360E-04    0.831E-04
RMM:  34    -0.262598121646E+03   -0.77715E-05   -0.69863E-08   633   0.386E-04    0.941E-04
RMM:  35    -0.262598123080E+03   -0.14345E-05   -0.15766E-08   400   0.321E-04    0.475E-04
RMM:  36    -0.262598124931E+03   -0.18503E-05   -0.24237E-08   469   0.332E-04    0.600E-04
RMM:  37    -0.262598126393E+03   -0.14622E-05   -0.16996E-08   426   0.308E-04    0.401E-04
RMM:  38    -0.262598127084E+03   -0.69117E-06   -0.75309E-09   309   0.282E-04
   7 F= -.26259813E+03 E0= -.26226030E+03  d E =-.318555E-02  mag=    40.3466
 curvature:  -4.09 expect dE=-0.261E-02 dE for cont linesearch -0.141E-05
 trial: gam= 0.48741 g(F)=  0.637E-03 g(S)=  0.000E+00 ort = 0.264E-04 (trialstep = 0.283E+01)
 search vector abs. value=  0.114E-02
 bond charge predicted
       N       E                     dE             d eps       ncg     rms          rms(c)
DAV:   1    -0.262599054287E+03   -0.92789E-03   -0.81762E-01  1600   0.147E+00    0.271E-01
RMM:   2    -0.262610007282E+03   -0.10953E-01   -0.10719E-02  1528   0.287E-01    0.236E+00
RMM:   3    -0.262597222702E+03    0.12785E-01   -0.53925E-03  1529   0.195E-01    0.410E-01
RMM:   4    -0.262600708703E+03   -0.34860E-02   -0.22499E-03  1528   0.118E-01    0.760E-01
RMM:   5    -0.262600049316E+03    0.65939E-03   -0.84253E-04  1528   0.778E-02    0.625E-01
RMM:   6    -0.262599355657E+03    0.69366E-03   -0.40160E-04  1528   0.531E-02    0.144E-01
RMM:   7    -0.262599561310E+03   -0.20565E-03   -0.11084E-04  1528   0.258E-02    0.143E-01
RMM:   8    -0.262599658374E+03   -0.97064E-04   -0.11716E-04  1528   0.262E-02    0.232E-01
RMM:   9    -0.262599518645E+03    0.13973E-03   -0.99670E-05  1528   0.257E-02    0.884E-02
RMM:  10    -0.262599551151E+03   -0.32506E-04   -0.38354E-05  1522   0.155E-02    0.688E-02
RMM:  11    -0.262599583568E+03   -0.32417E-04   -0.27087E-05  1521   0.128E-02    0.127E-01
RMM:  12    -0.262599544039E+03    0.39529E-04   -0.17892E-05  1511   0.111E-02    0.653E-02
RMM:  13    -0.262599551639E+03   -0.76000E-05   -0.10936E-05  1503   0.854E-03    0.245E-02
RMM:  14    -0.262599554935E+03   -0.32962E-05   -0.26799E-06  1010   0.399E-03    0.175E-02
RMM:  15    -0.262599559529E+03   -0.45934E-05   -0.16181E-06   914   0.339E-03    0.264E-02
RMM:  16    -0.262599561570E+03   -0.20411E-05   -0.13028E-06   917   0.337E-03    0.108E-02
RMM:  17    -0.262599563419E+03   -0.18494E-05   -0.42864E-07   880   0.178E-03    0.438E-03
RMM:  18    -0.262599569231E+03   -0.58116E-05   -0.29580E-07   906   0.131E-03    0.138E-02
RMM:  19    -0.262599571758E+03   -0.25272E-05   -0.21615E-07   900   0.128E-03    0.422E-03
RMM:  20    -0.262599573614E+03   -0.18561E-05   -0.95774E-08   869   0.771E-04    0.306E-03
RMM:  21    -0.262599577749E+03   -0.41347E-05   -0.88500E-08   892   0.685E-04    0.509E-03
RMM:  22    -0.262599580620E+03   -0.28716E-05   -0.66500E-08   874   0.662E-04    0.199E-03
RMM:  23    -0.262599582277E+03   -0.16566E-05   -0.26137E-08   693   0.418E-04    0.179E-03
RMM:  24    -0.262599586739E+03   -0.44624E-05   -0.40372E-08   713   0.409E-04    0.169E-03
RMM:  25    -0.262599588399E+03   -0.16596E-05   -0.14550E-08   524   0.366E-04    0.620E-04
RMM:  26    -0.262599591480E+03   -0.30812E-05   -0.14975E-08   483   0.339E-04    0.122E-03
RMM:  27    -0.262599594340E+03   -0.28601E-05   -0.15456E-08   376   0.305E-04    0.511E-04
RMM:  28    -0.262599595572E+03   -0.12315E-05   -0.99699E-09   333   0.309E-04    0.568E-04
RMM:  29    -0.262599599021E+03   -0.34491E-05   -0.37571E-08   483   0.344E-04    0.645E-04
RMM:  30    -0.262599600015E+03   -0.99382E-06   -0.10164E-08   320   0.303E-04
   8 F= -.26259960E+03 E0= -.26226169E+03  d E =-.147293E-02  mag=    40.3474
 trial-energy change:   -0.001473  1 .order   -0.001490   -0.001838   -0.001142
 step:   7.4700(harm=  7.4700)  dis= 0.00751  next Energy=  -262.600555 (dE=-0.243E-02)
 bond charge predicted
       N       E                     dE             d eps       ncg     rms          rms(c)
DAV:   1    -0.262599051526E+03    0.54750E-03   -0.22050E+00  1600   0.241E+00    0.446E-01
RMM:   2    -0.262628924395E+03   -0.29873E-01   -0.29118E-02  1528   0.473E-01    0.387E+00
RMM:   3    -0.262595449689E+03    0.33475E-01   -0.14559E-02  1529   0.320E-01    0.676E-01
RMM:   4    -0.262603631030E+03   -0.81813E-02   -0.60474E-03  1528   0.193E-01    0.124E+00
RMM:   5    -0.262601994868E+03    0.16362E-02   -0.22722E-03  1528   0.128E-01    0.103E+00
RMM:   6    -0.262600043556E+03    0.19513E-02   -0.10798E-03  1528   0.871E-02    0.241E-01
RMM:   7    -0.262600459905E+03   -0.41635E-03   -0.29964E-04  1528   0.424E-02    0.232E-01
RMM:   8    -0.262600704531E+03   -0.24463E-03   -0.31400E-04  1528   0.429E-02    0.383E-01
RMM:   9    -0.262600338427E+03    0.36610E-03   -0.26714E-04  1528   0.421E-02    0.149E-01
RMM:  10    -0.262600405251E+03   -0.66824E-04   -0.10324E-04  1528   0.254E-02    0.115E-01
RMM:  11    -0.262600494612E+03   -0.89361E-04   -0.71347E-05  1528   0.207E-02    0.214E-01
RMM:  12    -0.262600391835E+03    0.10278E-03   -0.51057E-05  1519   0.186E-02    0.104E-01
RMM:  13    -0.262600411301E+03   -0.19466E-04   -0.30058E-05  1521   0.142E-02    0.412E-02
RMM:  14    -0.262600419820E+03   -0.85192E-05   -0.78345E-06  1388   0.669E-03    0.303E-02
RMM:  15    -0.262600431538E+03   -0.11718E-04   -0.46260E-06  1296   0.541E-03    0.430E-02
RMM:  16    -0.262600436854E+03   -0.53156E-05   -0.34920E-06  1109   0.514E-03    0.173E-02
RMM:  17    -0.262600442000E+03   -0.51457E-05   -0.12367E-06   905   0.299E-03    0.777E-03
RMM:  18    -0.262600458253E+03   -0.16253E-04   -0.86216E-07   928   0.231E-03    0.137E-02
RMM:  19    -0.262600462632E+03   -0.43797E-05   -0.44452E-07   904   0.186E-03    0.576E-03
RMM:  20    -0.262600468940E+03   -0.63079E-05   -0.26299E-07   902   0.123E-03    0.746E-03
RMM:  21    -0.262600480975E+03   -0.12035E-04   -0.27589E-07   912   0.125E-03    0.457E-03
RMM:  22    -0.262600484839E+03   -0.38642E-05   -0.11594E-07   884   0.842E-04    0.333E-03
RMM:  23    -0.262600490355E+03   -0.55159E-05   -0.76453E-08   875   0.599E-04    0.557E-03
RMM:  24    -0.262600500330E+03   -0.99749E-05   -0.10877E-07   893   0.669E-04    0.270E-03
RMM:  25    -0.262600503781E+03   -0.34516E-05   -0.42569E-08   783   0.496E-04    0.115E-03
RMM:  26    -0.262600512553E+03   -0.87717E-05   -0.63913E-08   762   0.433E-04    0.218E-03
RMM:  27    -0.262600518346E+03   -0.57929E-05   -0.42581E-08   708   0.429E-04    0.846E-04
RMM:  28    -0.262600521432E+03   -0.30862E-05   -0.12442E-08   428   0.317E-04    0.126E-03
RMM:  29    -0.262600528618E+03   -0.71860E-05   -0.47149E-08   565   0.358E-04    0.150E-03
RMM:  30    -0.262600532941E+03   -0.43230E-05   -0.30882E-08   510   0.335E-04    0.532E-04
RMM:  31    -0.262600535850E+03   -0.29083E-05   -0.16196E-08   401   0.311E-04    0.728E-04
RMM:  32    -0.262600542422E+03   -0.65722E-05   -0.55620E-08   545   0.351E-04    0.446E-04
RMM:  33    -0.262600543945E+03   -0.15232E-05   -0.12102E-08   330   0.294E-04    0.373E-04
RMM:  34    -0.262600549387E+03   -0.54423E-05   -0.68134E-08   556   0.345E-04    0.513E-04
RMM:  35    -0.262600551550E+03   -0.21623E-05   -0.19093E-08   380   0.293E-04    0.392E-04
RMM:  36    -0.262600553889E+03   -0.23391E-05   -0.27552E-08   423   0.304E-04    0.519E-04
RMM:  37    -0.262600556370E+03   -0.24812E-05   -0.30750E-08   436   0.318E-04    0.258E-04
RMM:  38    -0.262600556809E+03   -0.43887E-06   -0.78151E-09   303   0.295E-04
   9 F= -.26260056E+03 E0= -.26226252E+03  d E =-.242972E-02  mag=    40.3493
 curvature:  -6.57 expect dE=-0.348E-02 dE for cont linesearch -0.155E-05
 trial: gam= 0.78490 g(F)=  0.530E-03 g(S)=  0.000E+00 ort = 0.164E-04 (trialstep = 0.341E+01)
 search vector abs. value=  0.126E-02
 bond charge predicted
       N       E                     dE             d eps       ncg     rms          rms(c)
DAV:   1    -0.262600983969E+03   -0.42760E-03   -0.13327E+00  1600   0.188E+00    0.331E-01
RMM:   2    -0.262615759237E+03   -0.14775E-01   -0.14925E-02  1528   0.347E-01    0.273E+00
RMM:   3    -0.262599054377E+03    0.16705E-01   -0.72034E-03  1528   0.225E-01    0.583E-01
RMM:   4    -0.262603749419E+03   -0.46950E-02   -0.33569E-03  1528   0.143E-01    0.104E+00
RMM:   5    -0.262602754168E+03    0.99525E-03   -0.13911E-03  1528   0.990E-02    0.870E-01
RMM:   6    -0.262601383007E+03    0.13712E-02   -0.78288E-04  1528   0.746E-02    0.157E-01
RMM:   7    -0.262601726090E+03   -0.34308E-03   -0.18757E-04  1528   0.333E-02    0.201E-01
RMM:   8    -0.262601871320E+03   -0.14523E-03   -0.19410E-04  1528   0.341E-02    0.305E-01
RMM:   9    -0.262601624515E+03    0.24680E-03   -0.15915E-04  1528   0.329E-02    0.110E-01
RMM:  10    -0.262601681068E+03   -0.56553E-04   -0.41555E-05  1522   0.160E-02    0.104E-01
RMM:  11    -0.262601710520E+03   -0.29452E-04   -0.38395E-05  1521   0.152E-02    0.140E-01
RMM:  12    -0.262601661946E+03    0.48573E-04   -0.29700E-05  1517   0.144E-02    0.508E-02
RMM:  13    -0.262601675594E+03   -0.13647E-04   -0.77534E-06  1455   0.711E-03    0.283E-02
RMM:  14    -0.262601683774E+03   -0.81808E-05   -0.36479E-06  1187   0.487E-03    0.385E-02
RMM:  15    -0.262601685817E+03   -0.20429E-05   -0.23971E-06   977   0.440E-03    0.198E-02
RMM:  16    -0.262601689282E+03   -0.34647E-05   -0.83273E-07   898   0.253E-03    0.126E-02
RMM:  17    -0.262601694549E+03   -0.52670E-05   -0.57327E-07   900   0.193E-03    0.134E-02
RMM:  18    -0.262601704310E+03   -0.97608E-05   -0.54466E-07   911   0.198E-03    0.852E-03
RMM:  19    -0.262601709803E+03   -0.54932E-05   -0.30750E-07   901   0.152E-03    0.435E-03
RMM:  20    -0.262601716739E+03   -0.69362E-05   -0.20437E-07   901   0.109E-03    0.502E-03
RMM:  21    -0.262601728302E+03   -0.11563E-04   -0.20021E-07   909   0.102E-03    0.695E-03
RMM:  22    -0.262601734587E+03   -0.62846E-05   -0.12347E-07   899   0.868E-04    0.254E-03
RMM:  23    -0.262601739849E+03   -0.52618E-05   -0.66521E-08   853   0.578E-04    0.298E-03
RMM:  24    -0.262601756634E+03   -0.16785E-04   -0.15628E-07   895   0.629E-04    0.236E-03
RMM:  25    -0.262601760364E+03   -0.37306E-05   -0.42300E-08   775   0.483E-04    0.123E-03
RMM:  26    -0.262601771138E+03   -0.10774E-04   -0.65940E-08   746   0.426E-04    0.269E-03
RMM:  27    -0.262601779695E+03   -0.85565E-05   -0.53696E-08   702   0.432E-04    0.158E-03
RMM:  28    -0.262601783408E+03   -0.37129E-05   -0.11889E-08   415   0.335E-04    0.993E-04
RMM:  29    -0.262601796541E+03   -0.13133E-04   -0.10960E-07   831   0.455E-04    0.200E-03
RMM:  30    -0.262601805187E+03   -0.86460E-05   -0.65403E-08   749   0.433E-04    0.915E-04
RMM:  31    -0.262601810020E+03   -0.48334E-05   -0.24638E-08   545   0.352E-04    0.105E-03
RMM:  32    -0.262601820129E+03   -0.10108E-04   -0.98234E-08   670   0.398E-04    0.884E-04
RMM:  33    -0.262601822257E+03   -0.21287E-05   -0.15331E-08   432   0.328E-04    0.837E-04
RMM:  34    -0.262601826774E+03   -0.45163E-05   -0.51892E-08   620   0.367E-04    0.602E-04
RMM:  35    -0.262601827671E+03   -0.89678E-06   -0.50008E-09   316   0.294E-04
  10 F= -.26260183E+03 E0= -.26226373E+03  d E =-.127086E-02  mag=    40.3618
 trial-energy change:   -0.001271  1 .order   -0.001265   -0.001849   -0.000681
 step:   5.3079(harm=  5.3932)  dis= 0.00478  next Energy=  -262.602019 (dE=-0.146E-02)
 reached required accuracy - stopping structural energy minimisation
