  56  56   0   0
  0.1428571E+03  0.2000000E-08  0.2000000E-08  0.2000000E-08  0.2000000E-15
  1.000000000000000E-004
  CAR 
 1x1_001_aAl2O3                          
      2.79132214    -17.81050862  301     -3.79311729      1.00000000
    -17.811  0.0000E+00  0.0000E+00  0.0000E+00  0.0000E+00
    -17.742  0.0000E+00  0.0000E+00  0.0000E+00  0.0000E+00
    -17.673  0.0000E+00  0.0000E+00  0.0000E+00  0.0000E+00
    -17.604  0.0000E+00  0.0000E+00  0.0000E+00  0.0000E+00
    -17.536  0.0000E+00  0.0000E+00  0.0000E+00  0.0000E+00
    -17.467  0.0000E+00  0.0000E+00  0.0000E+00  0.0000E+00
    -17.398  0.8083E-17  0.0000E+00  0.5551E-18  0.0000E+00
    -17.330  0.1510E-13  0.0000E+00  0.1038E-14  0.0000E+00
    -17.261  0.1351E-10  0.4042E-16  0.9287E-12  0.2776E-17
    -17.192  0.4798E-08  0.6818E-13  0.3304E-09  0.4685E-14
    -17.124  0.6802E-06  0.5020E-10  0.4704E-07  0.3452E-11
    -17.055  0.3877E-04  0.1469E-07  0.2709E-05  0.1012E-08
    -16.986  0.8959E-03  0.1718E-05  0.6424E-04  0.1190E-06
    -16.918  0.8480E-02  0.8090E-04  0.6466E-03  0.5675E-05
    -16.849  0.3320E-01  0.1548E-02  0.2927E-02  0.1120E-03
    -16.780  0.5419E-01  0.1216E-01  0.6648E-02  0.9469E-03
    -16.712  0.3698E-01  0.3958E-01  0.9188E-02  0.3665E-02
    -16.643  0.1053E-01  0.5376E-01  0.9911E-02  0.7356E-02
    -16.574  0.1241E-02  0.3053E-01  0.9996E-02  0.9453E-02
    -16.506  0.6001E-04  0.7226E-02  0.1000E-01  0.9949E-02
    -16.437  0.1178E-05  0.7067E-03  0.1000E-01  0.9998E-02
    -16.368  0.9302E-08  0.2829E-04  0.1000E-01  0.1000E-01
    -16.300  0.2935E-10  0.4587E-06  0.1000E-01  0.1000E-01
    -16.231  0.3678E-13  0.2988E-08  0.1000E-01  0.1000E-01
    -16.162  0.1617E-16  0.7765E-11  0.1000E-01  0.1000E-01
    -16.094  0.0000E+00  0.8019E-14  0.1000E-01  0.1000E-01
    -16.025  0.0000E+00  0.0000E+00  0.1000E-01  0.1000E-01
    -15.956  0.0000E+00  0.0000E+00  0.1000E-01  0.1000E-01
    -15.888  0.0000E+00  0.0000E+00  0.1000E-01  0.1000E-01
    -15.819  0.0000E+00  0.0000E+00  0.1000E-01  0.1000E-01
    -15.750  0.0000E+00  0.0000E+00  0.1000E-01  0.1000E-01
    -15.682  0.0000E+00  0.0000E+00  0.1000E-01  0.1000E-01
    -15.613  0.0000E+00  0.0000E+00  0.1000E-01  0.1000E-01
    -15.544  0.0000E+00  0.0000E+00  0.1000E-01  0.1000E-01
    -15.476  0.0000E+00  0.0000E+00  0.1000E-01  0.1000E-01
    -15.407  0.0000E+00  0.0000E+00  0.1000E-01  0.1000E-01
    -15.338  0.0000E+00  0.0000E+00  0.1000E-01  0.1000E-01
    -15.270  0.0000E+00  0.0000E+00  0.1000E-01  0.1000E-01
    -15.201  0.0000E+00  0.0000E+00  0.1000E-01  0.1000E-01
    -15.132  0.0000E+00  0.0000E+00  0.1000E-01  0.1000E-01
    -15.064  0.0000E+00  0.0000E+00  0.1000E-01  0.1000E-01
    -14.995  0.0000E+00  0.0000E+00  0.1000E-01  0.1000E-01
    -14.926  0.0000E+00  0.0000E+00  0.1000E-01  0.1000E-01
    -14.858  0.0000E+00  0.0000E+00  0.1000E-01  0.1000E-01
    -14.789  0.0000E+00  0.0000E+00  0.1000E-01  0.1000E-01
    -14.720  0.0000E+00  0.0000E+00  0.1000E-01  0.1000E-01
    -14.652  0.0000E+00  0.0000E+00  0.1000E-01  0.1000E-01
    -14.583  0.0000E+00  0.0000E+00  0.1000E-01  0.1000E-01
    -14.514  0.0000E+00  0.0000E+00  0.1000E-01  0.1000E-01
    -14.446  0.0000E+00  0.0000E+00  0.1000E-01  0.1000E-01
    -14.377  0.0000E+00  0.0000E+00  0.1000E-01  0.1000E-01
    -14.308  0.0000E+00  0.0000E+00  0.1000E-01  0.1000E-01
    -14.240  0.0000E+00  0.0000E+00  0.1000E-01  0.1000E-01
    -14.171  0.0000E+00  0.0000E+00  0.1000E-01  0.1000E-01
    -14.102  0.0000E+00  0.0000E+00  0.1000E-01  0.1000E-01
    -14.034  0.0000E+00  0.0000E+00  0.1000E-01  0.1000E-01
    -13.965  0.0000E+00  0.0000E+00  0.1000E-01  0.1000E-01
    -13.896  0.0000E+00  0.0000E+00  0.1000E-01  0.1000E-01
    -13.827  0.0000E+00  0.0000E+00  0.1000E-01  0.1000E-01
    -13.759  0.0000E+00  0.0000E+00  0.1000E-01  0.1000E-01
    -13.690  0.0000E+00  0.0000E+00  0.1000E-01  0.1000E-01
    -13.621  0.0000E+00  0.0000E+00  0.1000E-01  0.1000E-01
    -13.553  0.0000E+00  0.0000E+00  0.1000E-01  0.1000E-01
    -13.484  0.0000E+00  0.0000E+00  0.1000E-01  0.1000E-01
    -13.415  0.0000E+00  0.0000E+00  0.1000E-01  0.1000E-01
    -13.347  0.0000E+00  0.0000E+00  0.1000E-01  0.1000E-01
    -13.278  0.0000E+00  0.0000E+00  0.1000E-01  0.1000E-01
    -13.209  0.0000E+00  0.0000E+00  0.1000E-01  0.1000E-01
    -13.141  0.0000E+00  0.0000E+00  0.1000E-01  0.1000E-01
    -13.072  0.0000E+00  0.0000E+00  0.1000E-01  0.1000E-01
    -13.003  0.0000E+00  0.0000E+00  0.1000E-01  0.1000E-01
    -12.935  0.0000E+00  0.0000E+00  0.1000E-01  0.1000E-01
    -12.866  0.0000E+00  0.0000E+00  0.1000E-01  0.1000E-01
    -12.797  0.0000E+00  0.0000E+00  0.1000E-01  0.1000E-01
    -12.729  0.0000E+00  0.0000E+00  0.1000E-01  0.1000E-01
    -12.660  0.0000E+00  0.0000E+00  0.1000E-01  0.1000E-01
    -12.591  0.8083E-17  0.8083E-17  0.1000E-01  0.1000E-01
    -12.523  0.2345E-13  0.9773E-14  0.1000E-01  0.1000E-01
    -12.454  0.1983E-10  0.9245E-11  0.1000E-01  0.1000E-01
    -12.385  0.6658E-08  0.3469E-08  0.1000E-01  0.1000E-01
    -12.317  0.8928E-06  0.5194E-06  0.1000E-01  0.1000E-01
    -12.248  0.4815E-04  0.3125E-04  0.1000E-01  0.1000E-01
    -12.179  0.1054E-02  0.7619E-03  0.1008E-01  0.1005E-01
    -12.111  0.9449E-02  0.7603E-02  0.1072E-01  0.1058E-01
    -12.042  0.3507E-01  0.3137E-01  0.1313E-01  0.1273E-01
    -11.973  0.5428E-01  0.5393E-01  0.1686E-01  0.1643E-01
    -11.905  0.3513E-01  0.3877E-01  0.1927E-01  0.1910E-01
    -11.836  0.9481E-02  0.1163E-01  0.1992E-01  0.1990E-01
    -11.767  0.1059E-02  0.1445E-02  0.2000E-01  0.1999E-01
    -11.699  0.4848E-04  0.7372E-04  0.2000E-01  0.2000E-01
    -11.630  0.9005E-06  0.1527E-05  0.2000E-01  0.2000E-01
    -11.561  0.6726E-08  0.1274E-07  0.2000E-01  0.2000E-01
    -11.493  0.2007E-10  0.4245E-10  0.2000E-01  0.2000E-01
    -11.424  0.2378E-13  0.5623E-13  0.2000E-01  0.2000E-01
    -11.355  0.0000E+00  0.3233E-16  0.2000E-01  0.2000E-01
    -11.287  0.0000E+00  0.0000E+00  0.2000E-01  0.2000E-01
    -11.218  0.4688E-15  0.3314E-15  0.2000E-01  0.2000E-01
    -11.149  0.6953E-12  0.5101E-12  0.2000E-01  0.2000E-01
    -11.081  0.4121E-09  0.3157E-09  0.2000E-01  0.2000E-01
    -11.012  0.9748E-07  0.7785E-07  0.2000E-01  0.2000E-01
    -10.943  0.9282E-05  0.7708E-05  0.2000E-01  0.2000E-01
    -10.875  0.3598E-03  0.3099E-03  0.2003E-01  0.2002E-01
    -10.806  0.5775E-02  0.5142E-02  0.2042E-01  0.2037E-01
    -10.737  0.3921E-01  0.3603E-01  0.2311E-01  0.2285E-01
    -10.669  0.1158E+00  0.1100E+00  0.3107E-01  0.3040E-01
    -10.600  0.1531E+00  0.1520E+00  0.4158E-01  0.4084E-01
    -10.531  0.9294E-01  0.9843E-01  0.4796E-01  0.4760E-01
    -10.463  0.2610E-01  0.3031E-01  0.4976E-01  0.4968E-01
    -10.394  0.3344E-02  0.4354E-02  0.4999E-01  0.4998E-01
    -10.325  0.1896E-03  0.2802E-03  0.5000E-01  0.5000E-01
    -10.257  0.4597E-05  0.7739E-05  0.5000E-01  0.5000E-01
    -10.188  0.4630E-07  0.8873E-07  0.5000E-01  0.5000E-01
    -10.119  0.1897E-09  0.4133E-09  0.5000E-01  0.5000E-01
    -10.050  0.3121E-12  0.7719E-12  0.5000E-01  0.5000E-01
     -9.982  0.5982E-15  0.5820E-15  0.5000E-01  0.5000E-01
     -9.913  0.6346E-12  0.2748E-15  0.5000E-01  0.5000E-01
     -9.844  0.3972E-09  0.4552E-12  0.5000E-01  0.5000E-01
     -9.776  0.1003E-06  0.3028E-09  0.5000E-01  0.5000E-01
     -9.707  0.1032E-04  0.8087E-07  0.5000E-01  0.5000E-01
     -9.638  0.4367E-03  0.8739E-05  0.5003E-01  0.5000E-01
     -9.570  0.7717E-02  0.3862E-03  0.5056E-01  0.5003E-01
     -9.501  0.5781E-01  0.7074E-02  0.5453E-01  0.5051E-01
     -9.432  0.1869E+00  0.5458E-01  0.6737E-01  0.5426E-01
     -9.364  0.2686E+00  0.1807E+00  0.8581E-01  0.6667E-01
     -9.295  0.1908E+00  0.2616E+00  0.9891E-01  0.8464E-01
     -9.226  0.9766E-01  0.1704E+00  0.1056E+00  0.9634E-01
     -9.158  0.4748E-01  0.6336E-01  0.1089E+00  0.1007E+00
     -9.089  0.1424E-01  0.4927E-01  0.1099E+00  0.1041E+00
     -9.020  0.1926E-02  0.5300E-01  0.1100E+00  0.1077E+00
     -8.952  0.1183E-03  0.2700E-01  0.1100E+00  0.1096E+00
     -8.883  0.3755E-03  0.5761E-02  0.1100E+00  0.1100E+00
     -8.814  0.5919E-02  0.5078E-03  0.1104E+00  0.1100E+00
     -8.746  0.4005E-01  0.2037E-04  0.1132E+00  0.1100E+00
     -8.677  0.1206E+00  0.1092E-03  0.1215E+00  0.1100E+00
     -8.608  0.1778E+00  0.2345E-02  0.1337E+00  0.1102E+00
     -8.540  0.1724E+00  0.2114E-01  0.1455E+00  0.1116E+00
     -8.471  0.2140E+00  0.8247E-01  0.1602E+00  0.1173E+00
     -8.402  0.3142E+00  0.1474E+00  0.1818E+00  0.1274E+00
     -8.334  0.3212E+00  0.1374E+00  0.2038E+00  0.1368E+00
     -8.265  0.2954E+00  0.9511E-01  0.2241E+00  0.1434E+00
     -8.196  0.3170E+00  0.7200E-01  0.2459E+00  0.1483E+00
     -8.128  0.2665E+00  0.7743E-01  0.2642E+00  0.1536E+00
     -8.059  0.1875E+00  0.1795E+00  0.2771E+00  0.1660E+00
     -7.990  0.2399E+00  0.3910E+00  0.2936E+00  0.1928E+00
     -7.922  0.4003E+00  0.4942E+00  0.3210E+00  0.2268E+00
     -7.853  0.4394E+00  0.3689E+00  0.3512E+00  0.2521E+00
     -7.784  0.3139E+00  0.1983E+00  0.3728E+00  0.2657E+00
     -7.716  0.2329E+00  0.1022E+00  0.3888E+00  0.2727E+00
     -7.647  0.2392E+00  0.9991E-01  0.4052E+00  0.2796E+00
     -7.578  0.3392E+00  0.1167E+00  0.4285E+00  0.2876E+00
     -7.510  0.4455E+00  0.1363E+00  0.4591E+00  0.2970E+00
     -7.441  0.4628E+00  0.1931E+00  0.4909E+00  0.3102E+00
     -7.372  0.4670E+00  0.2884E+00  0.5229E+00  0.3300E+00
     -7.304  0.4548E+00  0.3998E+00  0.5542E+00  0.3575E+00
     -7.235  0.3656E+00  0.3743E+00  0.5793E+00  0.3832E+00
     -7.166  0.3102E+00  0.2234E+00  0.6006E+00  0.3985E+00
     -7.098  0.3217E+00  0.1913E+00  0.6227E+00  0.4117E+00
     -7.029  0.3093E+00  0.3065E+00  0.6439E+00  0.4327E+00
     -6.960  0.2978E+00  0.4252E+00  0.6643E+00  0.4619E+00
     -6.892  0.3339E+00  0.4915E+00  0.6873E+00  0.4957E+00
     -6.823  0.3884E+00  0.4818E+00  0.7140E+00  0.5288E+00
     -6.754  0.4114E+00  0.4301E+00  0.7422E+00  0.5583E+00
     -6.686  0.4269E+00  0.3365E+00  0.7715E+00  0.5814E+00
     -6.617  0.4575E+00  0.2810E+00  0.8029E+00  0.6007E+00
     -6.548  0.6426E+00  0.2814E+00  0.8471E+00  0.6200E+00
     -6.480  0.9107E+00  0.2864E+00  0.9096E+00  0.6397E+00
     -6.411  0.9302E+00  0.2379E+00  0.9735E+00  0.6560E+00
     -6.342  0.7854E+00  0.1600E+00  0.1027E+01  0.6670E+00
     -6.273  0.7189E+00  0.1791E+00  0.1077E+01  0.6793E+00
     -6.205  0.7415E+00  0.3531E+00  0.1128E+01  0.7036E+00
     -6.136  0.7378E+00  0.4939E+00  0.1178E+01  0.7375E+00
     -6.067  0.7301E+00  0.4950E+00  0.1229E+01  0.7715E+00
     -5.999  0.6439E+00  0.4557E+00  0.1273E+01  0.8028E+00
     -5.930  0.4398E+00  0.5144E+00  0.1303E+01  0.8381E+00
     -5.861  0.3905E+00  0.7088E+00  0.1330E+01  0.8868E+00
     -5.793  0.6775E+00  0.7145E+00  0.1376E+01  0.9358E+00
     -5.724  0.9780E+00  0.5027E+00  0.1443E+01  0.9704E+00
     -5.655  0.1005E+01  0.4931E+00  0.1512E+01  0.1004E+01
     -5.587  0.9854E+00  0.6589E+00  0.1580E+01  0.1049E+01
     -5.518  0.9806E+00  0.7150E+00  0.1648E+01  0.1099E+01
     -5.449  0.8057E+00  0.8129E+00  0.1703E+01  0.1154E+01
     -5.381  0.6087E+00  0.9699E+00  0.1745E+01  0.1221E+01
     -5.312  0.5861E+00  0.8003E+00  0.1785E+01  0.1276E+01
     -5.243  0.7114E+00  0.4531E+00  0.1834E+01  0.1307E+01
     -5.175  0.8168E+00  0.4090E+00  0.1890E+01  0.1335E+01
     -5.106  0.8132E+00  0.6558E+00  0.1946E+01  0.1380E+01
     -5.037  0.8804E+00  0.8170E+00  0.2006E+01  0.1436E+01
     -4.969  0.1029E+01  0.7187E+00  0.2077E+01  0.1486E+01
     -4.900  0.1125E+01  0.7425E+00  0.2154E+01  0.1537E+01
     -4.831  0.1142E+01  0.1040E+01  0.2232E+01  0.1608E+01
     -4.763  0.1232E+01  0.1132E+01  0.2317E+01  0.1686E+01
     -4.694  0.1395E+01  0.9008E+00  0.2413E+01  0.1748E+01
     -4.625  0.1669E+01  0.7530E+00  0.2527E+01  0.1799E+01
     -4.557  0.1831E+01  0.7592E+00  0.2653E+01  0.1851E+01
     -4.488  0.1544E+01  0.6549E+00  0.2759E+01  0.1896E+01
     -4.419  0.1087E+01  0.5180E+00  0.2834E+01  0.1932E+01
     -4.351  0.7168E+00  0.6341E+00  0.2883E+01  0.1976E+01
     -4.282  0.4369E+00  0.9426E+00  0.2913E+01  0.2040E+01
     -4.213  0.2143E+00  0.1148E+01  0.2928E+01  0.2119E+01
     -4.145  0.1146E+00  0.1071E+01  0.2936E+01  0.2193E+01
     -4.076  0.1052E+00  0.9577E+00  0.2943E+01  0.2258E+01
     -4.007  0.8990E-01  0.1074E+01  0.2949E+01  0.2332E+01
     -3.939  0.1066E+00  0.1186E+01  0.2956E+01  0.2414E+01
     -3.870  0.1749E+00  0.1125E+01  0.2968E+01  0.2491E+01
     -3.801  0.1777E+00  0.1129E+01  0.2981E+01  0.2568E+01
     -3.733  0.1116E+00  0.1291E+01  0.2988E+01  0.2657E+01
     -3.664  0.8986E-01  0.1351E+01  0.2994E+01  0.2750E+01
     -3.595  0.1356E+00  0.1030E+01  0.3004E+01  0.2820E+01
     -3.527  0.1667E+00  0.7069E+00  0.3015E+01  0.2869E+01
     -3.458  0.1363E+00  0.5799E+00  0.3025E+01  0.2909E+01
     -3.389  0.6330E-01  0.4419E+00  0.3029E+01  0.2939E+01
     -3.321  0.1507E-01  0.3126E+00  0.3030E+01  0.2961E+01
     -3.252  0.1197E-01  0.2408E+00  0.3031E+01  0.2977E+01
     -3.183  0.3916E-01  0.1855E+00  0.3034E+01  0.2990E+01
     -3.115  0.6926E-01  0.1763E+00  0.3038E+01  0.3002E+01
     -3.046  0.8255E-01  0.1839E+00  0.3044E+01  0.3015E+01
     -2.977  0.9867E-01  0.1440E+00  0.3051E+01  0.3025E+01
     -2.909  0.1209E+00  0.6701E-01  0.3059E+01  0.3029E+01
     -2.840  0.1062E+00  0.3101E-01  0.3066E+01  0.3031E+01
     -2.771  0.5879E-01  0.5324E-01  0.3070E+01  0.3035E+01
     -2.702  0.5825E-01  0.8410E-01  0.3074E+01  0.3041E+01
     -2.634  0.9115E-01  0.1051E+00  0.3081E+01  0.3048E+01
     -2.565  0.8582E-01  0.1289E+00  0.3086E+01  0.3057E+01
     -2.496  0.5040E-01  0.1280E+00  0.3090E+01  0.3066E+01
     -2.428  0.7484E-01  0.9801E-01  0.3095E+01  0.3072E+01
     -2.359  0.2015E+00  0.8992E-01  0.3109E+01  0.3078E+01
     -2.290  0.2923E+00  0.1007E+00  0.3129E+01  0.3085E+01
     -2.222  0.2417E+00  0.1226E+00  0.3146E+01  0.3094E+01
     -2.153  0.1399E+00  0.1463E+00  0.3155E+01  0.3104E+01
     -2.084  0.5584E-01  0.1669E+00  0.3159E+01  0.3115E+01
     -2.016  0.1303E-01  0.2180E+00  0.3160E+01  0.3130E+01
     -1.947  0.7596E-02  0.2205E+00  0.3160E+01  0.3145E+01
     -1.878  0.2836E-01  0.1402E+00  0.3162E+01  0.3155E+01
     -1.810  0.5315E-01  0.5722E-01  0.3166E+01  0.3159E+01
     -1.741  0.4232E-01  0.1577E-01  0.3169E+01  0.3160E+01
     -1.672  0.2156E-01  0.1813E-01  0.3170E+01  0.3161E+01
     -1.604  0.4457E-01  0.4537E-01  0.3174E+01  0.3164E+01
     -1.535  0.1043E+00  0.5219E-01  0.3181E+01  0.3168E+01
     -1.466  0.1470E+00  0.3350E-01  0.3191E+01  0.3170E+01
     -1.398  0.1981E+00  0.4964E-01  0.3204E+01  0.3174E+01
     -1.329  0.2201E+00  0.9917E-01  0.3219E+01  0.3181E+01
     -1.260  0.1469E+00  0.1136E+00  0.3230E+01  0.3188E+01
     -1.192  0.1181E+00  0.1299E+00  0.3238E+01  0.3197E+01
     -1.123  0.1666E+00  0.1946E+00  0.3249E+01  0.3211E+01
     -1.054  0.1849E+00  0.1905E+00  0.3262E+01  0.3224E+01
     -0.986  0.1625E+00  0.1167E+00  0.3273E+01  0.3232E+01
     -0.917  0.1618E+00  0.1027E+00  0.3284E+01  0.3239E+01
     -0.848  0.2392E+00  0.1573E+00  0.3301E+01  0.3250E+01
     -0.780  0.3095E+00  0.2201E+00  0.3322E+01  0.3265E+01
     -0.711  0.2767E+00  0.2522E+00  0.3341E+01  0.3282E+01
     -0.642  0.1953E+00  0.3122E+00  0.3354E+01  0.3303E+01
     -0.574  0.1268E+00  0.3458E+00  0.3363E+01  0.3327E+01
     -0.505  0.7229E-01  0.2492E+00  0.3368E+01  0.3344E+01
     -0.436  0.2617E-01  0.1464E+00  0.3370E+01  0.3354E+01
     -0.368  0.4620E-02  0.1201E+00  0.3370E+01  0.3363E+01
     -0.299  0.3547E-03  0.7880E-01  0.3370E+01  0.3368E+01
     -0.230  0.1226E-04  0.2501E-01  0.3370E+01  0.3370E+01
     -0.162  0.5114E-04  0.3468E-02  0.3370E+01  0.3370E+01
     -0.093  0.1134E-02  0.2051E-03  0.3370E+01  0.3370E+01
     -0.024  0.1091E-01  0.3475E-04  0.3371E+01  0.3370E+01
      0.044  0.5058E-01  0.7363E-03  0.3374E+01  0.3370E+01
      0.113  0.1360E+00  0.7565E-02  0.3384E+01  0.3371E+01
      0.182  0.2407E+00  0.3412E-01  0.3400E+01  0.3373E+01
      0.250  0.2688E+00  0.8262E-01  0.3419E+01  0.3379E+01
      0.319  0.1983E+00  0.1626E+00  0.3432E+01  0.3390E+01
      0.388  0.1411E+00  0.2741E+00  0.3442E+01  0.3409E+01
      0.456  0.1318E+00  0.2934E+00  0.3451E+01  0.3429E+01
      0.525  0.1134E+00  0.2125E+00  0.3459E+01  0.3443E+01
      0.594  0.8386E-01  0.1567E+00  0.3465E+01  0.3454E+01
      0.662  0.5659E-01  0.1168E+00  0.3468E+01  0.3462E+01
      0.731  0.3774E-01  0.7641E-01  0.3471E+01  0.3467E+01
      0.800  0.7814E-01  0.5161E-01  0.3476E+01  0.3471E+01
      0.868  0.1709E+00  0.9019E-01  0.3488E+01  0.3477E+01
      0.937  0.2457E+00  0.1936E+00  0.3505E+01  0.3490E+01
      1.006  0.2815E+00  0.2719E+00  0.3524E+01  0.3509E+01
      1.075  0.2973E+00  0.2554E+00  0.3545E+01  0.3527E+01
      1.143  0.3454E+00  0.2375E+00  0.3568E+01  0.3543E+01
      1.212  0.4342E+00  0.3505E+00  0.3598E+01  0.3567E+01
      1.281  0.4475E+00  0.4834E+00  0.3629E+01  0.3600E+01
      1.349  0.3517E+00  0.4488E+00  0.3653E+01  0.3631E+01
      1.418  0.3141E+00  0.3442E+00  0.3675E+01  0.3655E+01
      1.487  0.3336E+00  0.3301E+00  0.3698E+01  0.3677E+01
      1.555  0.3221E+00  0.3488E+00  0.3720E+01  0.3701E+01
      1.624  0.3310E+00  0.3445E+00  0.3742E+01  0.3725E+01
      1.693  0.3529E+00  0.3533E+00  0.3767E+01  0.3749E+01
      1.761  0.2951E+00  0.3549E+00  0.3787E+01  0.3774E+01
      1.830  0.1478E+00  0.2591E+00  0.3797E+01  0.3791E+01
      1.899  0.3702E-01  0.1044E+00  0.3800E+01  0.3798E+01
      1.967  0.4217E-02  0.2009E-01  0.3800E+01  0.3800E+01
      2.036  0.2077E-03  0.1726E-02  0.3800E+01  0.3800E+01
      2.105  0.4291E-05  0.6387E-04  0.3800E+01  0.3800E+01
      2.173  0.3645E-07  0.9944E-06  0.3800E+01  0.3800E+01
      2.242  0.1256E-09  0.6401E-08  0.3800E+01  0.3800E+01
      2.311  0.1737E-12  0.1681E-10  0.3800E+01  0.3800E+01
      2.379  0.9700E-16  0.1782E-13  0.3800E+01  0.3800E+01
      2.448  0.0000E+00  0.0000E+00  0.3800E+01  0.3800E+01
      2.517  0.0000E+00  0.0000E+00  0.3800E+01  0.3800E+01
      2.585  0.0000E+00  0.0000E+00  0.3800E+01  0.3800E+01
      2.654  0.0000E+00  0.0000E+00  0.3800E+01  0.3800E+01
      2.723  0.0000E+00  0.0000E+00  0.3800E+01  0.3800E+01
      2.791  0.0000E+00  0.0000E+00  0.3800E+01  0.3800E+01
