 vasp.5.4.4.18Apr17-6-g9f103f2a35 (build Dec 11 2018 16:16:58) complex          
  
 executed on             LinuxIFC date 2020.07.21  15:02:19
 running on   20 total cores
 distrk:  each k-point on   20 cores,    1 groups
 distr:  one band on NCORES_PER_BAND=   1 cores,   20 groups


--------------------------------------------------------------------------------------------------------


 INCAR:
 POTCAR:   PAW_PBE Ni 06Sep2000                   
 POTCAR:    PAW_PBE S 17Jan2003                   

 ----------------------------------------------------------------------------- 
|                                                                             |
|           W    W    AA    RRRRR   N    N  II  N    N   GGGG   !!!           |
|           W    W   A  A   R    R  NN   N  II  NN   N  G    G  !!!           |
|           W    W  A    A  R    R  N N  N  II  N N  N  G       !!!           |
|           W WW W  AAAAAA  RRRRR   N  N N  II  N  N N  G  GGG   !            |
|           WW  WW  A    A  R   R   N   NN  II  N   NN  G    G                |
|           W    W  A    A  R    R  N    N  II  N    N   GGGG   !!!           |
|                                                                             |
|      For optimal performance we recommend to set                            |
|        NCORE= 4 - approx SQRT( number of cores)                             |
|      NCORE specifies how many cores store one orbital (NPAR=cpu/NCORE).     |
|      This setting can  greatly improve the performance of VASP for DFT.     |
|      The default,   NCORE=1            might be grossly inefficient         |
|      on modern multi-core architectures or massively parallel machines.     |
|      Do your own testing !!!!                                               |
|      Unfortunately you need to use the default for GW and RPA calculations. |
|      (for HF NCORE is supported but not extensively tested yet)             |
|                                                                             |
 ----------------------------------------------------------------------------- 

 POTCAR:   PAW_PBE Ni 06Sep2000                   
  local pseudopotential read in
  partial core-charges read in
  atomic valenz-charges read in
  non local Contribution for L=           2  read in
    real space projection operators read in
  non local Contribution for L=           2  read in
    real space projection operators read in
  non local Contribution for L=           0  read in
    real space projection operators read in
  non local Contribution for L=           0  read in
    real space projection operators read in
  non local Contribution for L=           1  read in
    real space projection operators read in
  non local Contribution for L=           1  read in
    real space projection operators read in
    PAW grid and wavefunctions read in
 
   number of l-projection  operators is LMAX  =           6
   number of lm-projection operators is LMMAX =          18
 
 POTCAR:    PAW_PBE S 17Jan2003                   
  local pseudopotential read in
  partial core-charges read in
  atomic valenz-charges read in
  non local Contribution for L=           0  read in
    real space projection operators read in
  non local Contribution for L=           0  read in
    real space projection operators read in
  non local Contribution for L=           1  read in
    real space projection operators read in
  non local Contribution for L=           1  read in
    real space projection operators read in
    PAW grid and wavefunctions read in
 
   number of l-projection  operators is LMAX  =           4
   number of lm-projection operators is LMMAX =           8
 
 Optimization of the real space projectors (new method)

 maximal supplied QI-value         = 16.25
 optimisation between [QCUT,QGAM] = [ 10.24, 20.48] = [ 29.35,117.42] Ry 
 Optimized for a Real-space Cutoff    1.38 Angstroem

   l    n(q)    QCUT    max X(q) W(low)/X(q) W(high)/X(q)  e(spline) 
   2      7    10.239     4.811    0.22E-04    0.77E-04    0.38E-07
   2      7    10.239    15.146    0.35E-03    0.64E-03    0.10E-06
   0      8    10.239    14.357    0.23E-04    0.95E-05    0.71E-08
   0      8    10.239    43.282    0.33E-03    0.32E-04    0.83E-07
   1      8    10.239     5.514    0.10E-03    0.12E-03    0.15E-07
   1      8    10.239     7.697    0.32E-03    0.50E-03    0.12E-06
 Optimization of the real space projectors (new method)

 maximal supplied QI-value         = 19.84
 optimisation between [QCUT,QGAM] = [ 10.12, 20.44] = [ 28.68,116.96] Ry 
 Optimized for a Real-space Cutoff    1.23 Angstroem

   l    n(q)    QCUT    max X(q) W(low)/X(q) W(high)/X(q)  e(spline) 
   0      7    10.119     5.487    0.26E-04    0.13E-04    0.41E-08
   0      7    10.119    85.627    0.61E-04    0.28E-03    0.52E-07
   1      7    10.119     3.530    0.28E-04    0.18E-04    0.15E-07
   1      7    10.119    42.714    0.44E-03    0.62E-03    0.12E-06
 PAW_PBE Ni 06Sep2000                   :
 energy of atom  1       EATOM=-1077.9025
 kinetic energy error for atom=    0.0101 (will be added to EATOM!!)
  PAW_PBE S 17Jan2003                   :
 energy of atom  2       EATOM= -276.8230
 kinetic energy error for atom=    0.0046 (will be added to EATOM!!)
 
 
 POSCAR: IS                                      
  positions in direct lattice
  No initial velocities read in
 exchange correlation table for  LEXCH =        8
   RHO(1)=    0.500       N(1)  =     2000
   RHO(2)=  100.500       N(2)  =     4000
 


--------------------------------------------------------------------------------------------------------


 ion  position               nearest neighbor table
   1  0.350  0.596  0.410-  10 2.41  19 2.42   8 2.44  16 2.45   3 2.50  17 2.51   2 2.51  24 2.52

   2  0.451  0.663  0.377-  19 2.41   5 2.42  16 2.45   4 2.45   3 2.50  20 2.51   1 2.51   6 2.52

   3  0.411  0.663  0.496-  10 2.41   5 2.42   4 2.44   8 2.45   2 2.50   1 2.50  12 2.52  11 2.54

   4  0.513  0.724  0.464-   5 2.30   6 2.44  12 2.44   3 2.44   2 2.45   7 2.45
   5  0.515  0.609  0.465-   4 2.30  28 2.36  12 2.40   7 2.40   6 2.41   2 2.42   3 2.42  10 2.47
                            23 2.47  14 2.48  19 2.48  13 2.49
   6  0.577  0.665  0.378-  23 2.41   5 2.41   4 2.44  35 2.45   7 2.51   2 2.52  20 2.52  32 2.52

   7  0.615  0.665  0.497-   5 2.40  14 2.42   4 2.45  33 2.46  32 2.50   6 2.51  15 2.51  12 2.52

   8  0.316  0.593  0.528-  10 2.30   1 2.44   3 2.45  24 2.45  11 2.46   9 2.47
   9  0.352  0.488  0.582-  10 2.39  27 2.40  42 2.47   8 2.47  24 2.49  25 2.51  11 2.53  39 2.59

  10  0.415  0.543  0.497-   8 2.30  28 2.36   9 2.39   3 2.41   1 2.41  11 2.41  24 2.41  13 2.47
                             5 2.47  19 2.48  26 2.48  27 2.50
  11  0.412  0.597  0.604-  13 2.40  10 2.41  40 2.44   8 2.46  12 2.51   9 2.53   3 2.54  39 2.56

  12  0.513  0.664  0.571-   5 2.40  13 2.42  40 2.43   4 2.44  15 2.51  11 2.51   7 2.52   3 2.52

  13  0.514  0.543  0.570-  40 2.30  28 2.36  41 2.40  11 2.40  15 2.41  12 2.42  39 2.46  27 2.46
                            10 2.47   5 2.49  14 2.49  31 2.50
  14  0.615  0.544  0.498-  33 2.29  28 2.35  15 2.40  34 2.40  32 2.41   7 2.42  37 2.42  30 2.48
                             5 2.48  23 2.48  31 2.49  13 2.49
  15  0.615  0.599  0.604-  14 2.40  13 2.41  40 2.44  33 2.45  41 2.50  12 2.51   7 2.51  34 2.55

  16  0.393  0.593  0.296-  19 2.30  18 2.44   1 2.45   2 2.45  17 2.45  20 2.45
  17  0.352  0.489  0.345-  19 2.40  26 2.42  50 2.43  16 2.45   1 2.51  24 2.51  47 2.51  18 2.53

  18  0.454  0.491  0.270-  19 2.41  21 2.41  16 2.44  48 2.44  22 2.51  20 2.51  17 2.53  47 2.53

  19  0.454  0.542  0.379-  16 2.30  28 2.36  17 2.40  18 2.41   2 2.41   1 2.42  20 2.42  21 2.46
                            10 2.48  23 2.48   5 2.48  26 2.49
  20  0.515  0.598  0.291-  23 2.41  19 2.42  35 2.45  16 2.45  22 2.50  18 2.51   2 2.51   6 2.52

  21  0.517  0.439  0.359-  48 2.30  28 2.36  47 2.40  49 2.41  18 2.41  22 2.41  52 2.42  19 2.46
                            29 2.48  23 2.48  30 2.48  26 2.50
  22  0.579  0.492  0.271-  23 2.41  21 2.41  35 2.45  48 2.45  20 2.50  18 2.51  49 2.51  36 2.52

  23  0.578  0.544  0.380-  35 2.30  28 2.37  32 2.40  20 2.41   6 2.41  36 2.41  22 2.41   5 2.47
                            30 2.48  21 2.48  19 2.48  14 2.48
  24  0.312  0.488  0.464-  26 2.40  10 2.41   8 2.45  50 2.46   9 2.49  17 2.51  25 2.52   1 2.52

  25  0.352  0.381  0.517-  26 2.39  27 2.44  42 2.45  50 2.46   9 2.51  43 2.51  51 2.52  24 2.52

  26  0.416  0.437  0.433-  50 2.30  28 2.35  25 2.39  51 2.40  24 2.40  17 2.42  47 2.42  27 2.47
                            10 2.48  29 2.48  19 2.49  21 2.50
  27  0.455  0.437  0.550-  42 2.33  28 2.35   9 2.40  43 2.40  25 2.44  31 2.46  13 2.46  26 2.47
                            10 2.50  29 2.50  44 2.50  39 2.50
  28  0.516  0.491  0.465-  27 2.35  14 2.35  26 2.35  13 2.36  31 2.36  30 2.36   5 2.36  19 2.36
                            21 2.36  29 2.36  10 2.36  23 2.37
  29  0.518  0.372  0.464-  55 2.30  28 2.36  43 2.40  52 2.41  53 2.41  51 2.41  45 2.41  30 2.47
                            21 2.48  31 2.48  26 2.48  27 2.50
  30  0.617  0.439  0.432-  54 2.30  28 2.36  38 2.40  37 2.40  36 2.42  53 2.42  49 2.42  29 2.47
                            23 2.48  14 2.48  21 2.48  31 2.49
  31  0.578  0.438  0.550-  46 2.30  28 2.36  41 2.40  45 2.40  34 2.41  38 2.42  44 2.46  27 2.46
                            29 2.48  14 2.49  30 2.49  13 2.50
  32  0.679  0.600  0.412-  23 2.40  14 2.41  33 2.45  35 2.45  37 2.50   7 2.50   6 2.52  36 2.52

  33  0.712  0.597  0.530-  14 2.29  32 2.45  34 2.45  15 2.45   7 2.46  37 2.46
  34  0.680  0.492  0.584-  14 2.40  31 2.41  46 2.44  33 2.45  41 2.50  38 2.51  37 2.52  15 2.55

  35  0.638  0.597  0.297-  23 2.30  36 2.44   6 2.45  32 2.45  22 2.45  20 2.45
  36  0.681  0.493  0.345-  23 2.41  30 2.42  35 2.44  54 2.44  37 2.51  22 2.52  32 2.52  49 2.52

  37  0.720  0.493  0.464-  30 2.40  14 2.42  54 2.45  33 2.46  32 2.50  36 2.51  34 2.52  38 2.52

  38  0.682  0.385  0.517-  30 2.40  31 2.42  46 2.43  54 2.45  45 2.51  34 2.51  37 2.52  53 2.52

  39  0.453  0.491  0.663-  56 2.17  40 2.45  13 2.46  27 2.50  42 2.53  41 2.54  11 2.56   9 2.59
                            44 2.60
  40  0.514  0.597  0.672-  13 2.30  12 2.43  11 2.44  15 2.44  39 2.45  41 2.50
  41  0.579  0.492  0.657-  31 2.40  13 2.40  15 2.50  34 2.50  40 2.50  46 2.50  44 2.53  39 2.54

  42  0.393  0.384  0.633-  56 2.15  27 2.33  25 2.45   9 2.47  43 2.47  39 2.53  44 2.53
  43  0.455  0.317  0.549-  29 2.40  27 2.40  42 2.47  55 2.47  51 2.49  25 2.51  45 2.53  44 2.59

  44  0.519  0.382  0.642-  56 2.17  46 2.45  31 2.46  27 2.50  42 2.53  41 2.53  45 2.56  43 2.59
                            39 2.60
  45  0.582  0.318  0.550-  31 2.40  29 2.41  46 2.44  55 2.46  38 2.51  43 2.53  53 2.54  44 2.56

  46  0.641  0.386  0.631-  31 2.30  38 2.43  34 2.44  45 2.44  44 2.45  41 2.50
  47  0.416  0.383  0.324-  21 2.40  26 2.42  50 2.43  48 2.45  51 2.51  52 2.51  17 2.51  18 2.53

  48  0.517  0.387  0.256-  21 2.30  18 2.44  52 2.44  49 2.45  47 2.45  22 2.45
  49  0.619  0.386  0.324-  21 2.41  30 2.42  54 2.44  48 2.45  53 2.50  52 2.51  22 2.51  36 2.52

  50  0.319  0.385  0.399-  26 2.30  17 2.43  47 2.43  24 2.46  51 2.46  25 2.46
  51  0.416  0.316  0.431-  26 2.40  29 2.41  50 2.46  55 2.46  43 2.49  47 2.51  25 2.52  52 2.53

  52  0.518  0.318  0.356-  29 2.41  21 2.42  48 2.44  55 2.45  53 2.50  47 2.51  49 2.51  51 2.53

  53  0.620  0.319  0.429-  29 2.41  30 2.42  54 2.44  55 2.45  49 2.50  52 2.50  38 2.52  45 2.54

  54  0.715  0.389  0.399-  30 2.30  53 2.44  36 2.44  49 2.44  38 2.45  37 2.45
  55  0.520  0.258  0.463-  29 2.30  53 2.45  52 2.45  45 2.46  51 2.46  43 2.47
  56  0.449  0.401  0.723-  42 2.15  39 2.17  44 2.17
 
  LATTYP: Found a simple cubic cell.
 ALAT       =    20.0000000000
  
  Lattice vectors:
  
 A1 = (  20.0000000000,   0.0000000000,   0.0000000000)
 A2 = (   0.0000000000,  20.0000000000,   0.0000000000)
 A3 = (   0.0000000000,   0.0000000000,  20.0000000000)


Analysis of symmetry for initial positions (statically):
=====================================================================
 Subroutine PRICEL returns:
 Original cell was already a primitive cell.
 

 Routine SETGRP: Setting up the symmetry group for a 
 simple cubic supercell.


 Subroutine GETGRP returns: Found  1 space group operations
 (whereof  1 operations were pure point group operations)
 out of a pool of 48 trial point group operations.


The static configuration has the point symmetry C_1 .


Analysis of symmetry for dynamics (positions and initial velocities):
=====================================================================
 Subroutine PRICEL returns:
 Original cell was already a primitive cell.
 

 Routine SETGRP: Setting up the symmetry group for a 
 simple cubic supercell.


 Subroutine GETGRP returns: Found  1 space group operations
 (whereof  1 operations were pure point group operations)
 out of a pool of 48 trial point group operations.


The dynamic configuration has the point symmetry C_1 .


Analysis of structural, dynamic, and magnetic symmetry:
=====================================================================
 Subroutine PRICEL returns:
 Original cell was already a primitive cell.
 

 Routine SETGRP: Setting up the symmetry group for a 
 simple cubic supercell.


 Subroutine GETGRP returns: Found  1 space group operations
 (whereof  1 operations were pure point group operations)
 out of a pool of 48 trial point group operations.


The magnetic configuration has the point symmetry C_1 .


 Subroutine INISYM returns: Found  1 space group operations
 (whereof  1 operations are pure point group operations),
 and found     1 'primitive' translations

 
 
 KPOINTS: 4x2x1                                   

Automatic generation of k-mesh.
Space group operators:
 irot       det(A)        alpha          n_x          n_y          n_z        tau_x        tau_y        tau_z
    1     1.000000     0.000000     1.000000     0.000000     0.000000     0.000000     0.000000     0.000000
 
 Subroutine IBZKPT returns following result:
 ===========================================
 
 Found      1 irreducible k-points:
 
 Following reciprocal coordinates:
            Coordinates               Weight
  0.000000  0.000000  0.000000      1.000000
 
 Following cartesian coordinates:
            Coordinates               Weight
  0.000000  0.000000  0.000000      1.000000
 


--------------------------------------------------------------------------------------------------------




 Dimension of arrays:
   k-points           NKPTS =      1   k-points in BZ     NKDIM =      1   number of bands    NBANDS=    380
   number of dos      NEDOS =    301   number of ions     NIONS =     56
   non local maximal  LDIM  =      6   non local SUM 2l+1 LMDIM =     18
   total plane-waves  NPLWV = 941192
   max r-space proj   IRMAX =   1346   max aug-charges    IRDMAX=   4013
   dimension x,y,z NGX =    98 NGY =   98 NGZ =   98
   dimension x,y,z NGXF=   196 NGYF=  196 NGZF=  196
   support grid    NGXF=   196 NGYF=  196 NGZF=  196
   ions per type =              55   1
   NGX,Y,Z   is equivalent  to a cutoff of   8.15,  8.15,  8.15 a.u.
   NGXF,Y,Z  is equivalent  to a cutoff of  16.29, 16.29, 16.29 a.u.

 SYSTEM =  1x1_001_aAl2O3                          
 POSCAR =  IS                                      

 Startparameter for this run:
   NWRITE =      1    write-flag & timer
   PREC   = normal    normal or accurate (medium, high low for compatibility)
   ISTART =      0    job   : 0-new  1-cont  2-samecut
   ICHARG =      2    charge: 1-file 2-atom 10-const
   ISPIN  =      2    spin polarized calculation?
   LNONCOLLINEAR =      F non collinear calculations
   LSORBIT =      F    spin-orbit coupling
   INIWAV =      1    electr: 0-lowe 1-rand  2-diag
   LASPH  =      F    aspherical Exc in radial PAW
   METAGGA=      F    non-selfconsistent MetaGGA calc.

 Electronic Relaxation 1
   ENCUT  =  400.0 eV  29.40 Ry    5.42 a.u.  32.61 32.61 32.61*2*pi/ulx,y,z
   ENINI  =  400.0     initial cutoff
   ENAUG  =  544.6 eV  augmentation charge cutoff
   NELM   =    100;   NELMIN=  2; NELMDL= -5     # of ELM steps 
   EDIFF  = 0.1E-05   stopping-criterion for ELM
   LREAL  =      T    real-space projection
   NLSPLINE    = F    spline interpolate recip. space projectors
   LCOMPAT=      F    compatible to vasp.4.4
   GGA_COMPAT  = T    GGA compatible to vasp.4.4-vasp.4.6
   LMAXPAW     = -100 max onsite density
   LMAXMIX     =    2 max onsite mixed and CHGCAR
   VOSKOWN=      0    Vosko Wilk Nusair interpolation
   ROPT   =   -0.00050  -0.00050
 Ionic relaxation
   EDIFFG = -.3E-01   stopping-criterion for IOM
   NSW    =    100    number of steps for IOM
   NBLOCK =      1;   KBLOCK =    100    inner block; outer block 
   IBRION =      2    ionic relax: 0-MD 1-quasi-New 2-CG
   NFREE  =      5    steps in history (QN), initial steepest desc. (CG)
   ISIF   =      0    stress and relaxation
   IWAVPR =     11    prediction:  0-non 1-charg 2-wave 3-comb
   ISYM   =      2    0-nonsym 1-usesym 2-fastsym
   LCORR  =      T    Harris-Foulkes like correction to forces

   POTIM  = 0.2000    time-step for ionic-motion
   TEIN   =    0.0    initial temperature
   TEBEG  =    0.0;   TEEND  =   0.0 temperature during run
   SMASS  =  -3.00    Nose mass-parameter (am)
   estimated Nose-frequenzy (Omega)   =  0.10E-29 period in steps =****** mass=  -0.914E-26a.u.
   SCALEE = 1.0000    scale energy and forces
   NPACO  =    256;   APACO  = 16.0  distance and # of slots for P.C.
   PSTRESS=    0.0 pullay stress

  Mass of Ions in am
   POMASS =  58.69 32.07
  Ionic Valenz
   ZVAL   =  10.00  6.00
  Atomic Wigner-Seitz radii
   RWIGS  =  -1.00 -1.00
  virtual crystal weights 
   VCA    =   1.00  1.00
   NELECT =     556.0000    total number of electrons
   NUPDOWN=      -1.0000    fix difference up-down

 DOS related values:
   EMIN   =  10.00;   EMAX   =-10.00  energy-range for DOS
   EFERMI =   0.00
   ISMEAR =     0;   SIGMA  =   0.10  broadening in eV -4-tet -1-fermi 0-gaus

 Electronic relaxation 2 (details)
   IALGO  =     68    algorithm
   LDIAG  =      T    sub-space diagonalisation (order eigenvalues)
   LSUBROT=      F    optimize rotation matrix (better conditioning)
   TURBO    =      0    0=normal 1=particle mesh
   IRESTART =      0    0=no restart 2=restart with 2 vectors
   NREBOOT  =      0    no. of reboots
   NMIN     =      0    reboot dimension
   EREF     =   0.00    reference energy to select bands
   IMIX   =      4    mixing-type and parameters
     AMIX     =   0.40;   BMIX     =  1.00
     AMIX_MAG =   1.60;   BMIX_MAG =  1.00
     AMIN     =   0.10
     WC   =   100.;   INIMIX=   1;  MIXPRE=   1;  MAXMIX= -45

 Intra band minimization:
   WEIMIN = 0.0010     energy-eigenvalue tresh-hold
   EBREAK =  0.66E-09  absolut break condition
   DEPER  =   0.30     relativ break condition  

   TIME   =   0.40     timestep for ELM

  volume/ion in A,a.u.               =     142.86       964.05
  Fermi-wavevector in a.u.,A,eV,Ry     =   0.673085  1.271946  6.164026  0.453043
  Thomas-Fermi vector in A             =   1.749399
 
 Write flags
   LWAVE        =      F    write WAVECAR
   LDOWNSAMPLE  =      F    k-point downsampling of WAVECAR
   LCHARG       =      F    write CHGCAR
   LVTOT        =      F    write LOCPOT, total local potential
   LVHAR        =      F    write LOCPOT, Hartree potential only
   LELF         =      F    write electronic localiz. function (ELF)
   LORBIT       =      0    0 simple, 1 ext, 2 COOP (PROOUT), +10 PAW based schemes


 Dipole corrections
   LMONO  =      F    monopole corrections only (constant potential shift)
   LDIPOL =      F    correct potential (dipole corrections)
   IDIPOL =      0    1-x, 2-y, 3-z, 4-all directions 
   EPSILON=  1.0000000 bulk dielectric constant

 Exchange correlation treatment:
   GGA     =    --    GGA type
   LEXCH   =     8    internal setting for exchange type
   VOSKOWN=      0    Vosko Wilk Nusair interpolation
   LHFCALC =     F    Hartree Fock is set to
   LHFONE  =     F    Hartree Fock one center treatment
   AEXX    =    0.0000 exact exchange contribution

 Linear response parameters
   LEPSILON=     F    determine dielectric tensor
   LRPA    =     F    only Hartree local field effects (RPA)
   LNABLA  =     F    use nabla operator in PAW spheres
   LVEL    =     F    velocity operator in full k-point grid
   LINTERFAST=   F  fast interpolation
   KINTER  =     0    interpolate to denser k-point grid
   CSHIFT  =0.1000    complex shift for real part using Kramers Kronig
   OMEGAMAX=  -1.0    maximum frequency
   DEG_THRESHOLD= 0.2000000E-02 threshold for treating states as degnerate
   RTIME   =   -0.100 relaxation time in fs
  (WPLASMAI=    0.000 imaginary part of plasma frequency in eV, 0.658/RTIME)
   DFIELD  = 0.0000000 0.0000000 0.0000000 field for delta impulse in time
 
 Orbital magnetization related:
   ORBITALMAG=     F  switch on orbital magnetization
   LCHIMAG   =     F  perturbation theory with respect to B field
   DQ        =  0.001000  dq finite difference perturbation B field
   LLRAUG    =     F  two centre corrections for induced B field



--------------------------------------------------------------------------------------------------------


 conjugate gradient relaxation of ions
 charge density and potential will be updated during run
 spin polarized calculation
 RMM-DIIS sequential band-by-band and
  variant of blocked Davidson during initial phase
 perform sub-space diagonalisation
    before iterative eigenvector-optimisation
 modified Broyden-mixing scheme, WC =      100.0
 initial mixing is a Kerker type mixing with AMIX =  0.4000 and BMIX =      1.0000
 Hartree-type preconditioning will be used
 using additional bands          102
 real space projection scheme for non local part
 use partial core corrections
 calculate Harris-corrections to forces 
   (improved forces if not selfconsistent)
 use gradient corrections 
 use of overlap-Matrix (Vanderbilt PP)
 Gauss-broadening in eV      SIGMA  =   0.10


--------------------------------------------------------------------------------------------------------


  energy-cutoff  :      400.00
  volume of cell :     8000.00
      direct lattice vectors                 reciprocal lattice vectors
    20.000000000  0.000000000  0.000000000     0.050000000  0.000000000  0.000000000
     0.000000000 20.000000000  0.000000000     0.000000000  0.050000000  0.000000000
     0.000000000  0.000000000 20.000000000     0.000000000  0.000000000  0.050000000

  length of vectors
    20.000000000 20.000000000 20.000000000     0.050000000  0.050000000  0.050000000


 
 k-points in units of 2pi/SCALE and weight: 4x2x1                                   
   0.00000000  0.00000000  0.00000000       1.000
 
 k-points in reciprocal lattice and weights: 4x2x1                                   
   0.00000000  0.00000000  0.00000000       1.000
 
 position of ions in fractional coordinates (direct lattice) 
   0.34999999  0.59609997  0.41023001
   0.45111999  0.66298002  0.37739000
   0.41144001  0.66333997  0.49592999
   0.51289999  0.72356999  0.46397001
   0.51455998  0.60857999  0.46454999
   0.57696998  0.66512001  0.37803999
   0.61531001  0.66529000  0.49739999
   0.31621998  0.59328002  0.52759999
   0.35165000  0.48844001  0.58240998
   0.41481999  0.54310000  0.49675000
   0.41226000  0.59715998  0.60433000
   0.51300001  0.66443002  0.57078999
   0.51393002  0.54326999  0.57043999
   0.61514002  0.54430997  0.49803001
   0.61504000  0.59938997  0.60447001
   0.39269999  0.59319001  0.29561001
   0.35174000  0.48896000  0.34492999
   0.45374000  0.49070001  0.27023000
   0.45361000  0.54241002  0.37911001
   0.51520002  0.59798002  0.29126000
   0.51659000  0.43858001  0.35894001
   0.57914001  0.49233002  0.27079999
   0.57756001  0.54448003  0.37959999
   0.31229001  0.48839000  0.46421999
   0.35187000  0.38130999  0.51739001
   0.41624001  0.43660000  0.43307000
   0.45506999  0.43731001  0.55010003
   0.51587999  0.49059999  0.46496999
   0.51804000  0.37242001  0.46355999
   0.61691999  0.43946001  0.43193999
   0.57789999  0.43765000  0.55014002
   0.67907000  0.59966999  0.41204000
   0.71208000  0.59684998  0.52977002
   0.68033999  0.49168000  0.58374000
   0.63770002  0.59675997  0.29679000
   0.68107003  0.49320999  0.34472001
   0.71951002  0.49331000  0.46399999
   0.68197000  0.38521001  0.51692998
   0.45265999  0.49094000  0.66323000
   0.51353002  0.59705001  0.67210001
   0.57927000  0.49200001  0.65692002
   0.39315000  0.38383001  0.63277000
   0.45515999  0.31744999  0.54939002
   0.51909000  0.38150001  0.64209998
   0.58157003  0.31762001  0.55027002
   0.64121002  0.38648999  0.63142002
   0.41586000  0.38284001  0.32444999
   0.51719999  0.38745001  0.25582999
   0.61895001  0.38558999  0.32365999
   0.31948999  0.38475001  0.39871001
   0.41635999  0.31641999  0.43090999
   0.51840001  0.31786001  0.35631999
   0.62011999  0.31862000  0.42938000
   0.71500999  0.38927999  0.39916000
   0.51953000  0.25764999  0.46280000
   0.44926000  0.40059999  0.72285998
 
 position of ions in cartesian coordinates  (Angst):
   6.99999988 11.92199946  8.20460022
   9.02239978 13.25960040  7.54779994
   8.22880030 13.26679944  9.91859972
  10.25799990 14.47139978  9.27940012
  10.29119968 12.17159986  9.29099978
  11.53939962 13.30240012  7.56079972
  12.30620026 13.30579996  9.94799972
   6.32439970 11.86560034 10.55199980
   7.03300000  9.76880014 11.64819956
   8.29639972 10.86199998  9.93499994
   8.24519992 11.94319964 12.08660006
  10.26000022 13.28860044 11.41579986
  10.27860046 10.86539984 11.40879988
  12.30280042 10.88619948  9.96060014
  12.30080008 11.98779940 12.08940030
   7.85399974 11.86380028  5.91220022
   7.03480006  9.77919996  6.89859986
   9.07480002  9.81400012  5.40459990
   9.07220006 10.84820032  7.58220016
  10.30400038 11.95960044  5.82520008
  10.33179998  8.77160012  7.17880010
  11.58280014  9.84660030  5.41599988
  11.55120016 10.88960052  7.59199976
   6.24580026  9.76779998  9.28439974
   7.03740000  7.62619972 10.34780026
   8.32480014  8.73200000  8.66140008
   9.10139978  8.74620020 11.00200058
  10.31759978  9.81199980  9.29939986
  10.36080002  7.44840026  9.27119970
  12.33839988  8.78920018  8.63879978
  11.55799984  8.75299990 11.00280046
  13.58139992 11.99339986  8.24079990
  14.24160004 11.93699956 10.59540034
  13.60679984  9.83359992 11.67479992
  12.75400042 11.93519950  5.93580008
  13.62140060  9.86419976  6.89440012
  14.39020038  9.86620008  9.27999974
  13.63940000  7.70420014 10.33859968
   9.05319988  9.81880010 13.26460004
  10.27060032 11.94100022 13.44200016
  11.58540010  9.84000028 13.13840032
   7.86300004  7.67660022 12.65540004
   9.10319984  6.34899974 10.98780036
  10.38179994  7.63000012 12.84199954
  11.63140058  6.35240018 11.00540042
  12.82420040  7.72979974 12.62840032
   8.31719994  7.65680016  6.48899972
  10.34399986  7.74900020  5.11659980
  12.37900018  7.71179974  6.47319972
   6.38979972  7.69500018  7.97420024
   8.32719982  6.32839978  8.61819982
  10.36800026  6.35720014  7.12639988
  12.40239978  6.37239992  8.58760000
  14.30019974  7.78559982  7.98319996
  10.39059996  5.15299976  9.25599992
   8.98519992  8.01199972 14.45719958
 


--------------------------------------------------------------------------------------------------------


 k-point  1 :   0.0000 0.0000 0.0000  plane waves:  145165

 maximum and minimum number of plane-waves per node :    145165   145165

 maximum number of plane-waves:    145165
 maximum index in each direction: 
   IXMAX=   32   IYMAX=   32   IZMAX=   32
   IXMIN=  -32   IYMIN=  -32   IZMIN=  -32


 serial   3D FFT for wavefunctions
 parallel 3D FFT for charge:
    minimum data exchange during FFTs selected (reduces bandwidth)


 total amount of memory used by VASP MPI-rank0   256272. kBytes
=======================================================================

   base      :      30000. kBytes
   nonlr-proj:      12280. kBytes
   fftplans  :      16788. kBytes
   grid      :     106586. kBytes
   one-center:       1741. kBytes
   wavefun   :      88877. kBytes
 
     INWAV:  cpu time    0.0010: real time    0.0001
 Broyden mixing: mesh for mixing (old mesh)
   NGX = 65   NGY = 65   NGZ = 65
  (NGX  =196   NGY  =196   NGZ  =196)
  gives a total of 274625 points

 initial charge density was supplied:
 charge density of overlapping atoms calculated
 number of electron     556.0000000 magnetization      56.0000000
 keeping initial charge density in first step


--------------------------------------------------------------------------------------------------------


 Maximum index for non-local projection operator         1272
 Maximum index for augmentation-charges          291 (set IRDMAX)


--------------------------------------------------------------------------------------------------------


 First call to EWALD:  gamma=   0.089
 Maximum number of real-space cells 3x 3x 3
 Maximum number of reciprocal cells 3x 3x 3

    FEWALD:  cpu time    0.0040: real time    0.0035


--------------------------------------- Iteration      1(   1)  ---------------------------------------


    POTLOK:  cpu time    0.9679: real time    0.9718
    SETDIJ:  cpu time    0.0250: real time    0.0240
     EDDAV:  cpu time   23.0555: real time   23.1356
       DOS:  cpu time    0.0030: real time    0.0031
    --------------------------------------------
      LOOP:  cpu time   24.0513: real time   24.1344

 eigenvalue-minimisations  :  1520
 total energy-change (2. order) : 0.2835379E+04  (-0.1612942E+05)
 number of electron     556.0000000 magnetization      56.0000000
 augmentation part      556.0000000 magnetization      56.0000000

 Free energy of the ion-electron system (eV)
  ---------------------------------------------------
  alpha Z        PSCENC =       387.12086559
  Ewald energy   TEWEN  =    180958.51048671
  -Hartree energ DENC   =   -235738.49427587
  -exchange      EXHF   =         0.00000000
  -V(xc)+E(xc)   XCENC  =      1723.71096490
  PAW double counting   =     47977.39182462   -51648.67119642
  entropy T*S    EENTRO =        -0.39815227
  eigenvalues    EBANDS =      -384.69460540
  atomic energy  EATOM  =     59560.90262231
  Solvation  Ediel_sol  =         0.00000000
  ---------------------------------------------------
  free energy    TOTEN  =      2835.37853418 eV

  energy without entropy =     2835.77668646  energy(sigma->0) =     2835.57761032


--------------------------------------------------------------------------------------------------------




--------------------------------------- Iteration      1(   2)  ---------------------------------------


     EDDAV:  cpu time   24.6503: real time   24.7320
       DOS:  cpu time    0.0030: real time    0.0031
    --------------------------------------------
      LOOP:  cpu time   24.6533: real time   24.7351

 eigenvalue-minimisations  :  1660
 total energy-change (2. order) :-0.2978465E+04  (-0.2877077E+04)
 number of electron     556.0000000 magnetization      56.0000000
 augmentation part      556.0000000 magnetization      56.0000000

 Free energy of the ion-electron system (eV)
  ---------------------------------------------------
  alpha Z        PSCENC =       387.12086559
  Ewald energy   TEWEN  =    180958.51048671
  -Hartree energ DENC   =   -235738.49427587
  -exchange      EXHF   =         0.00000000
  -V(xc)+E(xc)   XCENC  =      1723.71096490
  PAW double counting   =     47977.39182462   -51648.67119642
  entropy T*S    EENTRO =        -0.59553011
  eigenvalues    EBANDS =     -3362.96222393
  atomic energy  EATOM  =     59560.90262231
  Solvation  Ediel_sol  =         0.00000000
  ---------------------------------------------------
  free energy    TOTEN  =      -143.08646218 eV

  energy without entropy =     -142.49093208  energy(sigma->0) =     -142.78869713


--------------------------------------------------------------------------------------------------------




--------------------------------------- Iteration      1(   3)  ---------------------------------------


     EDDAV:  cpu time   26.2770: real time   26.3390
       DOS:  cpu time    0.0030: real time    0.0029
    --------------------------------------------
      LOOP:  cpu time   26.2800: real time   26.3420

 eigenvalue-minimisations  :  1800
 total energy-change (2. order) :-0.1602609E+03  (-0.1530102E+03)
 number of electron     556.0000000 magnetization      56.0000000
 augmentation part      556.0000000 magnetization      56.0000000

 Free energy of the ion-electron system (eV)
  ---------------------------------------------------
  alpha Z        PSCENC =       387.12086559
  Ewald energy   TEWEN  =    180958.51048671
  -Hartree energ DENC   =   -235738.49427587
  -exchange      EXHF   =         0.00000000
  -V(xc)+E(xc)   XCENC  =      1723.71096490
  PAW double counting   =     47977.39182462   -51648.67119642
  entropy T*S    EENTRO =        -0.48937955
  eigenvalues    EBANDS =     -3523.32932272
  atomic energy  EATOM  =     59560.90262231
  Solvation  Ediel_sol  =         0.00000000
  ---------------------------------------------------
  free energy    TOTEN  =      -303.34741042 eV

  energy without entropy =     -302.85803087  energy(sigma->0) =     -303.10272064


--------------------------------------------------------------------------------------------------------




--------------------------------------- Iteration      1(   4)  ---------------------------------------


     EDDAV:  cpu time   24.9372: real time   24.9951
       DOS:  cpu time    0.0030: real time    0.0031
    --------------------------------------------
      LOOP:  cpu time   24.9402: real time   24.9982

 eigenvalue-minimisations  :  1680
 total energy-change (2. order) :-0.3750471E+01  (-0.3698691E+01)
 number of electron     556.0000000 magnetization      56.0000000
 augmentation part      556.0000000 magnetization      56.0000000

 Free energy of the ion-electron system (eV)
  ---------------------------------------------------
  alpha Z        PSCENC =       387.12086559
  Ewald energy   TEWEN  =    180958.51048671
  -Hartree energ DENC   =   -235738.49427587
  -exchange      EXHF   =         0.00000000
  -V(xc)+E(xc)   XCENC  =      1723.71096490
  PAW double counting   =     47977.39182462   -51648.67119642
  entropy T*S    EENTRO =        -0.49349260
  eigenvalues    EBANDS =     -3527.07568065
  atomic energy  EATOM  =     59560.90262231
  Solvation  Ediel_sol  =         0.00000000
  ---------------------------------------------------
  free energy    TOTEN  =      -307.09788140 eV

  energy without entropy =     -306.60438880  energy(sigma->0) =     -306.85113510


--------------------------------------------------------------------------------------------------------




--------------------------------------- Iteration      1(   5)  ---------------------------------------


     EDDAV:  cpu time   25.3661: real time   25.4256
       DOS:  cpu time    0.0030: real time    0.0030
    CHARGE:  cpu time    1.1108: real time    1.1141
    MIXING:  cpu time    0.0140: real time    0.0137
    --------------------------------------------
      LOOP:  cpu time   26.4940: real time   26.5564

 eigenvalue-minimisations  :  1720
 total energy-change (2. order) :-0.8426475E-01  (-0.8420370E-01)
 number of electron     555.9999999 magnetization      54.9138418
 augmentation part      316.0210286 magnetization      45.7607273

 Broyden mixing:
  rms(total) = 0.54366E+01    rms(broyden)= 0.54357E+01
  rms(prec ) = 0.59683E+01
  weight for this iteration     100.00

 Free energy of the ion-electron system (eV)
  ---------------------------------------------------
  alpha Z        PSCENC =       387.12086559
  Ewald energy   TEWEN  =    180958.51048671
  -Hartree energ DENC   =   -235738.49427587
  -exchange      EXHF   =         0.00000000
  -V(xc)+E(xc)   XCENC  =      1723.71096490
  PAW double counting   =     47977.39182462   -51648.67119642
  entropy T*S    EENTRO =        -0.49367777
  eigenvalues    EBANDS =     -3527.15976023
  atomic energy  EATOM  =     59560.90262231
  Solvation  Ediel_sol  =         0.00000000
  ---------------------------------------------------
  free energy    TOTEN  =      -307.18214615 eV

  energy without entropy =     -306.68846838  energy(sigma->0) =     -306.93530726


--------------------------------------------------------------------------------------------------------




--------------------------------------- Iteration      1(   6)  ---------------------------------------


    POTLOK:  cpu time    0.9539: real time    0.9551
    SETDIJ:  cpu time    0.0250: real time    0.0250
    EDDIAG:  cpu time    4.8563: real time    4.8671
  RMM-DIIS:  cpu time    9.4096: real time    9.4316
    ORTHCH:  cpu time    1.6597: real time    1.6622
       DOS:  cpu time    0.0030: real time    0.0022
    CHARGE:  cpu time    1.0808: real time    1.0837
    MIXING:  cpu time    0.0160: real time    0.0147
    --------------------------------------------
      LOOP:  cpu time   18.0043: real time   18.0416

 eigenvalue-minimisations  :  1522
 total energy-change (2. order) :-0.8273121E+02  (-0.5869460E+02)
 number of electron     555.9999993 magnetization      53.9841178
 augmentation part      349.2961234 magnetization      49.6111313

 Broyden mixing:
  rms(total) = 0.12934E+02    rms(broyden)= 0.12934E+02
  rms(prec ) = 0.14952E+02
  weight for this iteration     100.00

 eigenvalues of (default mixing * dielectric matrix)
  average eigenvalue GAMMA=   0.2235
  0.2235

 Free energy of the ion-electron system (eV)
  ---------------------------------------------------
  alpha Z        PSCENC =       387.12086559
  Ewald energy   TEWEN  =    180958.51048671
  -Hartree energ DENC   =   -235032.87700610
  -exchange      EXHF   =         0.00000000
  -V(xc)+E(xc)   XCENC  =      1670.55384931
  PAW double counting   =     47635.42002710   -51118.89305441
  entropy T*S    EENTRO =        -0.19708032
  eigenvalues    EBANDS =     -4450.45406455
  atomic energy  EATOM  =     59560.90262231
  Solvation  Ediel_sol  =         0.00000000
  ---------------------------------------------------
  free energy    TOTEN  =      -389.91335435 eV

  energy without entropy =     -389.71627404  energy(sigma->0) =     -389.81481419


--------------------------------------------------------------------------------------------------------




--------------------------------------- Iteration      1(   7)  ---------------------------------------


    POTLOK:  cpu time    0.9469: real time    0.9501
    SETDIJ:  cpu time    0.0230: real time    0.0226
    EDDIAG:  cpu time    4.9492: real time    4.9598
  RMM-DIIS:  cpu time    9.4886: real time    9.5120
    ORTHCH:  cpu time    1.6557: real time    1.6618
       DOS:  cpu time    0.0030: real time    0.0016
    CHARGE:  cpu time    1.0938: real time    1.0972
    MIXING:  cpu time    0.0170: real time    0.0164
    --------------------------------------------
      LOOP:  cpu time   18.1772: real time   18.2214

 eigenvalue-minimisations  :  1528
 total energy-change (2. order) : 0.5959434E+02  (-0.2735527E+02)
 number of electron     555.9999912 magnetization      53.2239457
 augmentation part      350.7472628 magnetization      45.3337881

 Broyden mixing:
  rms(total) = 0.79161E+01    rms(broyden)= 0.79149E+01
  rms(prec ) = 0.88151E+01
  weight for this iteration     100.00

 eigenvalues of (default mixing * dielectric matrix)
  average eigenvalue GAMMA=   0.2351
  0.2981  0.1721

 Free energy of the ion-electron system (eV)
  ---------------------------------------------------
  alpha Z        PSCENC =       387.12086559
  Ewald energy   TEWEN  =    180958.51048671
  -Hartree energ DENC   =   -234903.70021472
  -exchange      EXHF   =         0.00000000
  -V(xc)+E(xc)   XCENC  =      1674.99799372
  PAW double counting   =     47936.13222691   -51475.98838967
  entropy T*S    EENTRO =        -0.74542668
  eigenvalues    EBANDS =     -4467.54918230
  atomic energy  EATOM  =     59560.90262231
  Solvation  Ediel_sol  =         0.00000000
  ---------------------------------------------------
  free energy    TOTEN  =      -330.31901812 eV

  energy without entropy =     -329.57359144  energy(sigma->0) =     -329.94630478


--------------------------------------------------------------------------------------------------------




--------------------------------------- Iteration      1(   8)  ---------------------------------------


    POTLOK:  cpu time    0.9519: real time    0.9544
    SETDIJ:  cpu time    0.0240: real time    0.0238
    EDDIAG:  cpu time    4.8823: real time    4.8919
  RMM-DIIS:  cpu time    9.4486: real time    9.4731
    ORTHCH:  cpu time    1.6597: real time    1.6632
       DOS:  cpu time    0.0020: real time    0.0013
    CHARGE:  cpu time    1.0928: real time    1.0958
    MIXING:  cpu time    0.0200: real time    0.0191
    --------------------------------------------
      LOOP:  cpu time   18.0813: real time   18.1227

 eigenvalue-minimisations  :  1528
 total energy-change (2. order) : 0.3648320E+02  (-0.1052353E+02)
 number of electron     556.0000074 magnetization      52.2359943
 augmentation part      346.4626934 magnetization      43.9338655

 Broyden mixing:
  rms(total) = 0.92365E+01    rms(broyden)= 0.92359E+01
  rms(prec ) = 0.10285E+02
  weight for this iteration     100.00

 eigenvalues of (default mixing * dielectric matrix)
  average eigenvalue GAMMA=   0.3083
  0.6144  0.1552  0.1552

 Free energy of the ion-electron system (eV)
  ---------------------------------------------------
  alpha Z        PSCENC =       387.12086559
  Ewald energy   TEWEN  =    180958.51048671
  -Hartree energ DENC   =   -235190.61216047
  -exchange      EXHF   =         0.00000000
  -V(xc)+E(xc)   XCENC  =      1681.30534126
  PAW double counting   =     48431.67417921   -52048.77002646
  entropy T*S    EENTRO =        -0.50050644
  eigenvalues    EBANDS =     -4073.46661513
  atomic energy  EATOM  =     59560.90262231
  Solvation  Ediel_sol  =         0.00000000
  ---------------------------------------------------
  free energy    TOTEN  =      -293.83581342 eV

  energy without entropy =     -293.33530697  energy(sigma->0) =     -293.58556019


--------------------------------------------------------------------------------------------------------




--------------------------------------- Iteration      1(   9)  ---------------------------------------


    POTLOK:  cpu time    0.9489: real time    0.9533
    SETDIJ:  cpu time    0.0240: real time    0.0227
    EDDIAG:  cpu time    4.8583: real time    4.8696
  RMM-DIIS:  cpu time    9.5086: real time    9.5325
    ORTHCH:  cpu time    1.6587: real time    1.6610
       DOS:  cpu time    0.0030: real time    0.0025
    CHARGE:  cpu time    1.0918: real time    1.0949
    MIXING:  cpu time    0.0180: real time    0.0181
    --------------------------------------------
      LOOP:  cpu time   18.1112: real time   18.1547

 eigenvalue-minimisations  :  1528
 total energy-change (2. order) : 0.2735272E+02  (-0.4477107E+01)
 number of electron     555.9999973 magnetization      51.8748249
 augmentation part      340.2952746 magnetization      42.5390573

 Broyden mixing:
  rms(total) = 0.46025E+01    rms(broyden)= 0.46014E+01
  rms(prec ) = 0.51287E+01
  weight for this iteration     100.00

 eigenvalues of (default mixing * dielectric matrix)
  average eigenvalue GAMMA=   0.2908
  0.6421  0.2232  0.1819  0.1159

 Free energy of the ion-electron system (eV)
  ---------------------------------------------------
  alpha Z        PSCENC =       387.12086559
  Ewald energy   TEWEN  =    180958.51048671
  -Hartree energ DENC   =   -235476.43460405
  -exchange      EXHF   =         0.00000000
  -V(xc)+E(xc)   XCENC  =      1686.82991031
  PAW double counting   =     48932.21118995   -52623.45533367
  entropy T*S    EENTRO =        -0.72429583
  eigenvalues    EBANDS =     -3691.44393934
  atomic energy  EATOM  =     59560.90262231
  Solvation  Ediel_sol  =         0.00000000
  ---------------------------------------------------
  free energy    TOTEN  =      -266.48309802 eV

  energy without entropy =     -265.75880220  energy(sigma->0) =     -266.12095011


--------------------------------------------------------------------------------------------------------




--------------------------------------- Iteration      1(  10)  ---------------------------------------


    POTLOK:  cpu time    0.9509: real time    0.9537
    SETDIJ:  cpu time    0.0240: real time    0.0226
    EDDIAG:  cpu time    4.8563: real time    4.8689
  RMM-DIIS:  cpu time    9.5136: real time    9.5376
    ORTHCH:  cpu time    1.6587: real time    1.6617
       DOS:  cpu time    0.0020: real time    0.0015
    CHARGE:  cpu time    1.0808: real time    1.0840
    MIXING:  cpu time    0.0210: real time    0.0199
    --------------------------------------------
      LOOP:  cpu time   18.1072: real time   18.1500

 eigenvalue-minimisations  :  1528
 total energy-change (2. order) :-0.2056392E+00  (-0.5945696E+00)
 number of electron     555.9999855 magnetization      51.3909865
 augmentation part      340.6295911 magnetization      43.5202350

 Broyden mixing:
  rms(total) = 0.64016E+01    rms(broyden)= 0.64008E+01
  rms(prec ) = 0.74395E+01
  weight for this iteration     100.00

 eigenvalues of (default mixing * dielectric matrix)
  average eigenvalue GAMMA=   0.2824
  0.6622  0.4105  0.1375  0.1375  0.0645

 Free energy of the ion-electron system (eV)
  ---------------------------------------------------
  alpha Z        PSCENC =       387.12086559
  Ewald energy   TEWEN  =    180958.51048671
  -Hartree energ DENC   =   -235516.73753090
  -exchange      EXHF   =         0.00000000
  -V(xc)+E(xc)   XCENC  =      1686.90869692
  PAW double counting   =     49056.28871563   -52758.45459230
  entropy T*S    EENTRO =        -0.70099078
  eigenvalues    EBANDS =     -3640.52701039
  atomic energy  EATOM  =     59560.90262231
  Solvation  Ediel_sol  =         0.00000000
  ---------------------------------------------------
  free energy    TOTEN  =      -266.68873720 eV

  energy without entropy =     -265.98774643  energy(sigma->0) =     -266.33824182


--------------------------------------------------------------------------------------------------------




--------------------------------------- Iteration      1(  11)  ---------------------------------------


    POTLOK:  cpu time    0.9489: real time    0.9514
    SETDIJ:  cpu time    0.0240: real time    0.0238
    EDDIAG:  cpu time    4.8583: real time    4.8697
  RMM-DIIS:  cpu time    9.4666: real time    9.4921
    ORTHCH:  cpu time    1.6577: real time    1.6609
       DOS:  cpu time    0.0020: real time    0.0019
    CHARGE:  cpu time    1.0878: real time    1.0901
    MIXING:  cpu time    0.0210: real time    0.0209
    --------------------------------------------
      LOOP:  cpu time   18.0663: real time   18.1109

 eigenvalue-minimisations  :  1528
 total energy-change (2. order) : 0.6159404E+01  (-0.5065914E+00)
 number of electron     555.9999973 magnetization      50.9355253
 augmentation part      340.0965331 magnetization      42.3051407

 Broyden mixing:
  rms(total) = 0.41193E+01    rms(broyden)= 0.41181E+01
  rms(prec ) = 0.46197E+01
  weight for this iteration     100.00

 eigenvalues of (default mixing * dielectric matrix)
  average eigenvalue GAMMA=   0.2665
  0.6862  0.4560  0.1377  0.1377  0.1393  0.0419

 Free energy of the ion-electron system (eV)
  ---------------------------------------------------
  alpha Z        PSCENC =       387.12086559
  Ewald energy   TEWEN  =    180958.51048671
  -Hartree energ DENC   =   -235555.35843594
  -exchange      EXHF   =         0.00000000
  -V(xc)+E(xc)   XCENC  =      1687.57478402
  PAW double counting   =     49183.94471479   -52896.18596456
  entropy T*S    EENTRO =        -0.57528883
  eigenvalues    EBANDS =     -3586.46311715
  atomic energy  EATOM  =     59560.90262231
  Solvation  Ediel_sol  =         0.00000000
  ---------------------------------------------------
  free energy    TOTEN  =      -260.52933305 eV

  energy without entropy =     -259.95404422  energy(sigma->0) =     -260.24168864


--------------------------------------------------------------------------------------------------------




--------------------------------------- Iteration      1(  12)  ---------------------------------------


    POTLOK:  cpu time    0.9499: real time    0.9525
    SETDIJ:  cpu time    0.0230: real time    0.0230
    EDDIAG:  cpu time    4.8593: real time    4.8702
  RMM-DIIS:  cpu time    9.4316: real time    9.4560
    ORTHCH:  cpu time    1.6607: real time    1.6646
       DOS:  cpu time    0.0030: real time    0.0018
    CHARGE:  cpu time    1.0848: real time    1.0885
    MIXING:  cpu time    0.0240: real time    0.0232
    --------------------------------------------
      LOOP:  cpu time   18.0363: real time   18.0798

 eigenvalue-minimisations  :  1527
 total energy-change (2. order) : 0.1580325E+01  (-0.3156121E+00)
 number of electron     556.0000015 magnetization      50.3976773
 augmentation part      339.8360724 magnetization      42.0802909

 Broyden mixing:
  rms(total) = 0.38210E+01    rms(broyden)= 0.38201E+01
  rms(prec ) = 0.42200E+01
  weight for this iteration     100.00

 eigenvalues of (default mixing * dielectric matrix)
  average eigenvalue GAMMA=   0.2572
  0.7084  0.4226  0.2034  0.2034  0.1473  0.0665  0.0489

 Free energy of the ion-electron system (eV)
  ---------------------------------------------------
  alpha Z        PSCENC =       387.12086559
  Ewald energy   TEWEN  =    180958.51048671
  -Hartree energ DENC   =   -235591.73227121
  -exchange      EXHF   =         0.00000000
  -V(xc)+E(xc)   XCENC  =      1688.08744330
  PAW double counting   =     49309.16636165   -53030.22629974
  entropy T*S    EENTRO =        -0.57707441
  eigenvalues    EBANDS =     -3540.20114189
  atomic energy  EATOM  =     59560.90262231
  Solvation  Ediel_sol  =         0.00000000
  ---------------------------------------------------
  free energy    TOTEN  =      -258.94900770 eV

  energy without entropy =     -258.37193329  energy(sigma->0) =     -258.66047049


--------------------------------------------------------------------------------------------------------




--------------------------------------- Iteration      1(  13)  ---------------------------------------


    POTLOK:  cpu time    0.9499: real time    0.9525
    SETDIJ:  cpu time    0.0240: real time    0.0235
    EDDIAG:  cpu time    4.8853: real time    4.8966
  RMM-DIIS:  cpu time    9.4496: real time    9.4742
    ORTHCH:  cpu time    1.6607: real time    1.6635
       DOS:  cpu time    0.0030: real time    0.0025
    CHARGE:  cpu time    1.0818: real time    1.0857
    MIXING:  cpu time    0.0240: real time    0.0237
    --------------------------------------------
      LOOP:  cpu time   18.0783: real time   18.1223

 eigenvalue-minimisations  :  1528
 total energy-change (2. order) : 0.2045765E+01  (-0.2863846E+00)
 number of electron     555.9999994 magnetization      50.1575977
 augmentation part      339.7333340 magnetization      42.0006490

 Broyden mixing:
  rms(total) = 0.29528E+01    rms(broyden)= 0.29521E+01
  rms(prec ) = 0.33401E+01
  weight for this iteration     100.00

 eigenvalues of (default mixing * dielectric matrix)
  average eigenvalue GAMMA=   0.2667
  0.7143  0.4379  0.4379  0.1777  0.1334  0.1139  0.0734  0.0455

 Free energy of the ion-electron system (eV)
  ---------------------------------------------------
  alpha Z        PSCENC =       387.12086559
  Ewald energy   TEWEN  =    180958.51048671
  -Hartree energ DENC   =   -235628.37192096
  -exchange      EXHF   =         0.00000000
  -V(xc)+E(xc)   XCENC  =      1688.77188221
  PAW double counting   =     49451.65784970   -53181.62556805
  entropy T*S    EENTRO =        -0.54389434
  eigenvalues    EBANDS =     -3493.32556567
  atomic energy  EATOM  =     59560.90262231
  Solvation  Ediel_sol  =         0.00000000
  ---------------------------------------------------
  free energy    TOTEN  =      -256.90324250 eV

  energy without entropy =     -256.35934816  energy(sigma->0) =     -256.63129533


--------------------------------------------------------------------------------------------------------




--------------------------------------- Iteration      1(  14)  ---------------------------------------


    POTLOK:  cpu time    0.9529: real time    0.9549
    SETDIJ:  cpu time    0.0240: real time    0.0238
    EDDIAG:  cpu time    4.8583: real time    4.8698
  RMM-DIIS:  cpu time    9.4666: real time    9.4896
    ORTHCH:  cpu time    1.6607: real time    1.6651
       DOS:  cpu time    0.0020: real time    0.0015
    CHARGE:  cpu time    1.0848: real time    1.0878
    MIXING:  cpu time    0.0260: real time    0.0249
    --------------------------------------------
      LOOP:  cpu time   18.0753: real time   18.1174

 eigenvalue-minimisations  :  1528
 total energy-change (2. order) : 0.1033895E+01  (-0.1163173E+00)
 number of electron     555.9999988 magnetization      49.9205428
 augmentation part      339.8421491 magnetization      41.8751581

 Broyden mixing:
  rms(total) = 0.25854E+01    rms(broyden)= 0.25848E+01
  rms(prec ) = 0.29595E+01
  weight for this iteration     100.00

 eigenvalues of (default mixing * dielectric matrix)
  average eigenvalue GAMMA=   0.2712
  0.7252  0.5412  0.5412  0.1786  0.1263  0.1263  0.0924  0.0459  0.0636

 Free energy of the ion-electron system (eV)
  ---------------------------------------------------
  alpha Z        PSCENC =       387.12086559
  Ewald energy   TEWEN  =    180958.51048671
  -Hartree energ DENC   =   -235639.02750474
  -exchange      EXHF   =         0.00000000
  -V(xc)+E(xc)   XCENC  =      1689.06425434
  PAW double counting   =     49509.67973268   -53242.03067967
  entropy T*S    EENTRO =        -0.58149563
  eigenvalues    EBANDS =     -3479.50762899
  atomic energy  EATOM  =     59560.90262231
  Solvation  Ediel_sol  =         0.00000000
  ---------------------------------------------------
  free energy    TOTEN  =      -255.86934740 eV

  energy without entropy =     -255.28785177  energy(sigma->0) =     -255.57859959


--------------------------------------------------------------------------------------------------------




--------------------------------------- Iteration      1(  15)  ---------------------------------------


    POTLOK:  cpu time    0.9489: real time    0.9515
    SETDIJ:  cpu time    0.0240: real time    0.0232
    EDDIAG:  cpu time    4.8703: real time    4.8819
  RMM-DIIS:  cpu time    9.4576: real time    9.4826
    ORTHCH:  cpu time    1.6587: real time    1.6617
       DOS:  cpu time    0.0020: real time    0.0012
    CHARGE:  cpu time    1.0898: real time    1.0924
    MIXING:  cpu time    0.0290: real time    0.0286
    --------------------------------------------
      LOOP:  cpu time   18.0803: real time   18.1231

 eigenvalue-minimisations  :  1528
 total energy-change (2. order) : 0.1310912E+01  (-0.9100962E-01)
 number of electron     555.9999998 magnetization      49.7450444
 augmentation part      339.7867022 magnetization      41.7489357

 Broyden mixing:
  rms(total) = 0.16988E+01    rms(broyden)= 0.16982E+01
  rms(prec ) = 0.19334E+01
  weight for this iteration     100.00

 eigenvalues of (default mixing * dielectric matrix)
  average eigenvalue GAMMA=   0.2633
  0.7311  0.5727  0.5727  0.1923  0.1285  0.1285  0.1342  0.0713  0.0458  0.0556

 Free energy of the ion-electron system (eV)
  ---------------------------------------------------
  alpha Z        PSCENC =       387.12086559
  Ewald energy   TEWEN  =    180958.51048671
  -Hartree energ DENC   =   -235648.56076907
  -exchange      EXHF   =         0.00000000
  -V(xc)+E(xc)   XCENC  =      1689.43788033
  PAW double counting   =     49562.78809268   -53296.81791588
  entropy T*S    EENTRO =        -0.64021641
  eigenvalues    EBANDS =     -3467.29948170
  atomic energy  EATOM  =     59560.90262231
  Solvation  Ediel_sol  =         0.00000000
  ---------------------------------------------------
  free energy    TOTEN  =      -254.55843543 eV

  energy without entropy =     -253.91821903  energy(sigma->0) =     -254.23832723


--------------------------------------------------------------------------------------------------------




--------------------------------------- Iteration      1(  16)  ---------------------------------------


    POTLOK:  cpu time    0.9489: real time    0.9515
    SETDIJ:  cpu time    0.0250: real time    0.0239
    EDDIAG:  cpu time    4.8483: real time    4.8607
  RMM-DIIS:  cpu time    9.4706: real time    9.4942
    ORTHCH:  cpu time    1.6567: real time    1.6606
       DOS:  cpu time    0.0020: real time    0.0012
    CHARGE:  cpu time    1.0918: real time    1.0947
    MIXING:  cpu time    0.0330: real time    0.0326
    --------------------------------------------
      LOOP:  cpu time   18.0763: real time   18.1196

 eigenvalue-minimisations  :  1528
 total energy-change (2. order) : 0.4052375E+00  (-0.6392335E-01)
 number of electron     555.9999990 magnetization      49.0981412
 augmentation part      339.8499773 magnetization      41.2641025

 Broyden mixing:
  rms(total) = 0.99115E+00    rms(broyden)= 0.99051E+00
  rms(prec ) = 0.10867E+01
  weight for this iteration     100.00

 eigenvalues of (default mixing * dielectric matrix)
  average eigenvalue GAMMA=   0.3056
  0.8115  0.7157  0.7157  0.3904  0.1616  0.1476  0.1476  0.0945  0.0754  0.0458
  0.0558

 Free energy of the ion-electron system (eV)
  ---------------------------------------------------
  alpha Z        PSCENC =       387.12086559
  Ewald energy   TEWEN  =    180958.51048671
  -Hartree energ DENC   =   -235654.33081942
  -exchange      EXHF   =         0.00000000
  -V(xc)+E(xc)   XCENC  =      1689.43299309
  PAW double counting   =     49598.14818025   -53333.11892628
  entropy T*S    EENTRO =        -0.66591937
  eigenvalues    EBANDS =     -3460.15268081
  atomic energy  EATOM  =     59560.90262231
  Solvation  Ediel_sol  =         0.00000000
  ---------------------------------------------------
  free energy    TOTEN  =      -254.15319791 eV

  energy without entropy =     -253.48727855  energy(sigma->0) =     -253.82023823


--------------------------------------------------------------------------------------------------------




--------------------------------------- Iteration      1(  17)  ---------------------------------------


    POTLOK:  cpu time    0.9509: real time    0.9527
    SETDIJ:  cpu time    0.0230: real time    0.0225
    EDDIAG:  cpu time    4.8523: real time    4.8646
  RMM-DIIS:  cpu time    9.4276: real time    9.4502
    ORTHCH:  cpu time    1.6607: real time    1.6645
       DOS:  cpu time    0.0020: real time    0.0013
    CHARGE:  cpu time    1.0928: real time    1.0956
    MIXING:  cpu time    0.0340: real time    0.0341
    --------------------------------------------
      LOOP:  cpu time   18.0433: real time   18.0855

 eigenvalue-minimisations  :  1528
 total energy-change (2. order) :-0.8828044E+00  (-0.1187372E+00)
 number of electron     556.0000013 magnetization      48.5499605
 augmentation part      339.9939566 magnetization      41.1591619

 Broyden mixing:
  rms(total) = 0.21250E+01    rms(broyden)= 0.21244E+01
  rms(prec ) = 0.23909E+01
  weight for this iteration     100.00

 eigenvalues of (default mixing * dielectric matrix)
  average eigenvalue GAMMA=   0.3130
  0.8950  0.7905  0.7905  0.4570  0.1705  0.1474  0.1474  0.0936  0.0936  0.0703
  0.0459  0.0549

 Free energy of the ion-electron system (eV)
  ---------------------------------------------------
  alpha Z        PSCENC =       387.12086559
  Ewald energy   TEWEN  =    180958.51048671
  -Hartree energ DENC   =   -235686.13936286
  -exchange      EXHF   =         0.00000000
  -V(xc)+E(xc)   XCENC  =      1689.25500162
  PAW double counting   =     49727.63930948   -53468.56518999
  entropy T*S    EENTRO =        -0.71046046
  eigenvalues    EBANDS =     -3423.04927476
  atomic energy  EATOM  =     59560.90262231
  Solvation  Ediel_sol  =         0.00000000
  ---------------------------------------------------
  free energy    TOTEN  =      -255.03600235 eV

  energy without entropy =     -254.32554189  energy(sigma->0) =     -254.68077212


--------------------------------------------------------------------------------------------------------




--------------------------------------- Iteration      1(  18)  ---------------------------------------


    POTLOK:  cpu time    0.9449: real time    0.9466
    SETDIJ:  cpu time    0.0220: real time    0.0223
    EDDIAG:  cpu time    4.8813: real time    4.8914
  RMM-DIIS:  cpu time    9.4246: real time    9.4503
    ORTHCH:  cpu time    1.6607: real time    1.6640
       DOS:  cpu time    0.0020: real time    0.0014
    CHARGE:  cpu time    1.0948: real time    1.0987
    MIXING:  cpu time    0.0380: real time    0.0374
    --------------------------------------------
      LOOP:  cpu time   18.0683: real time   18.1120

 eigenvalue-minimisations  :  1526
 total energy-change (2. order) : 0.6734340E+00  (-0.7959139E-01)
 number of electron     555.9999995 magnetization      48.3843333
 augmentation part      340.0850208 magnetization      41.2235477

 Broyden mixing:
  rms(total) = 0.13741E+01    rms(broyden)= 0.13733E+01
  rms(prec ) = 0.15411E+01
  weight for this iteration     100.00

 eigenvalues of (default mixing * dielectric matrix)
  average eigenvalue GAMMA=   0.3017
  0.9247  0.7959  0.7959  0.4599  0.1801  0.1555  0.1555  0.1076  0.1076  0.0458
  0.0552  0.0692  0.0692

 Free energy of the ion-electron system (eV)
  ---------------------------------------------------
  alpha Z        PSCENC =       387.12086559
  Ewald energy   TEWEN  =    180958.51048671
  -Hartree energ DENC   =   -235714.12736368
  -exchange      EXHF   =         0.00000000
  -V(xc)+E(xc)   XCENC  =      1689.01116942
  PAW double counting   =     49832.65208898   -53578.96206871
  entropy T*S    EENTRO =        -0.68542209
  eigenvalues    EBANDS =     -3388.78494685
  atomic energy  EATOM  =     59560.90262231
  Solvation  Ediel_sol  =         0.00000000
  ---------------------------------------------------
  free energy    TOTEN  =      -254.36256831 eV

  energy without entropy =     -253.67714622  energy(sigma->0) =     -254.01985726


--------------------------------------------------------------------------------------------------------




--------------------------------------- Iteration      1(  19)  ---------------------------------------


    POTLOK:  cpu time    0.9429: real time    0.9461
    SETDIJ:  cpu time    0.0250: real time    0.0240
    EDDIAG:  cpu time    4.8483: real time    4.8582
  RMM-DIIS:  cpu time    9.4616: real time    9.4869
    ORTHCH:  cpu time    1.6577: real time    1.6611
       DOS:  cpu time    0.0020: real time    0.0019
    CHARGE:  cpu time    1.1018: real time    1.1040
    MIXING:  cpu time    0.0420: real time    0.0421
    --------------------------------------------
      LOOP:  cpu time   18.0813: real time   18.1243

 eigenvalue-minimisations  :  1528
 total energy-change (2. order) : 0.1951181E+00  (-0.3881730E-01)
 number of electron     555.9999993 magnetization      47.9082678
 augmentation part      339.9665489 magnetization      40.8063099

 Broyden mixing:
  rms(total) = 0.80160E+00    rms(broyden)= 0.80098E+00
  rms(prec ) = 0.89686E+00
  weight for this iteration     100.00

 eigenvalues of (default mixing * dielectric matrix)
  average eigenvalue GAMMA=   0.3376
  0.9928  0.9399  0.9399  0.4793  0.4793  0.1680  0.1443  0.1443  0.1107  0.0925
  0.0739  0.0459  0.0548  0.0610

 Free energy of the ion-electron system (eV)
  ---------------------------------------------------
  alpha Z        PSCENC =       387.12086559
  Ewald energy   TEWEN  =    180958.51048671
  -Hartree energ DENC   =   -235724.03547607
  -exchange      EXHF   =         0.00000000
  -V(xc)+E(xc)   XCENC  =      1688.84033807
  PAW double counting   =     49859.24253297   -53607.41613892
  entropy T*S    EENTRO =        -0.68859266
  eigenvalues    EBANDS =     -3376.64408817
  atomic energy  EATOM  =     59560.90262231
  Solvation  Ediel_sol  =         0.00000000
  ---------------------------------------------------
  free energy    TOTEN  =      -254.16745017 eV

  energy without entropy =     -253.47885751  energy(sigma->0) =     -253.82315384


--------------------------------------------------------------------------------------------------------




--------------------------------------- Iteration      1(  20)  ---------------------------------------


    POTLOK:  cpu time    0.9469: real time    0.9491
    SETDIJ:  cpu time    0.0240: real time    0.0237
    EDDIAG:  cpu time    4.8503: real time    4.8621
  RMM-DIIS:  cpu time    9.4756: real time    9.4992
    ORTHCH:  cpu time    1.6557: real time    1.6589
       DOS:  cpu time    0.0030: real time    0.0030
    CHARGE:  cpu time    1.1028: real time    1.1052
    MIXING:  cpu time    0.0460: real time    0.0463
    --------------------------------------------
      LOOP:  cpu time   18.1042: real time   18.1475

 eigenvalue-minimisations  :  1528
 total energy-change (2. order) :-0.9802363E+00  (-0.5402563E-01)
 number of electron     556.0000005 magnetization      47.3250939
 augmentation part      340.1019108 magnetization      40.4779197

 Broyden mixing:
  rms(total) = 0.16112E+01    rms(broyden)= 0.16107E+01
  rms(prec ) = 0.18369E+01
  weight for this iteration     100.00

 eigenvalues of (default mixing * dielectric matrix)
  average eigenvalue GAMMA=   0.3500
  1.1020  1.0346  1.0346  0.5500  0.5500  0.1728  0.1433  0.1433  0.1159  0.0979
  0.0780  0.0459  0.0695  0.0544  0.0579

 Free energy of the ion-electron system (eV)
  ---------------------------------------------------
  alpha Z        PSCENC =       387.12086559
  Ewald energy   TEWEN  =    180958.51048671
  -Hartree energ DENC   =   -235743.26209004
  -exchange      EXHF   =         0.00000000
  -V(xc)+E(xc)   XCENC  =      1688.26110093
  PAW double counting   =     49914.15984909   -53665.06602144
  entropy T*S    EENTRO =        -0.66447729
  eigenvalues    EBANDS =     -3355.11002230
  atomic energy  EATOM  =     59560.90262231
  Solvation  Ediel_sol  =         0.00000000
  ---------------------------------------------------
  free energy    TOTEN  =      -255.14768643 eV

  energy without entropy =     -254.48320915  energy(sigma->0) =     -254.81544779


--------------------------------------------------------------------------------------------------------




--------------------------------------- Iteration      1(  21)  ---------------------------------------


    POTLOK:  cpu time    0.9469: real time    0.9492
    SETDIJ:  cpu time    0.0230: real time    0.0222
    EDDIAG:  cpu time    4.8373: real time    4.8496
  RMM-DIIS:  cpu time    9.4536: real time    9.4776
    ORTHCH:  cpu time    1.6617: real time    1.6655
       DOS:  cpu time    0.0020: real time    0.0014
    CHARGE:  cpu time    1.0918: real time    1.0943
    MIXING:  cpu time    0.0510: real time    0.0510
    --------------------------------------------
      LOOP:  cpu time   18.0673: real time   18.1107

 eigenvalue-minimisations  :  1525
 total energy-change (2. order) :-0.3364935E+00  (-0.4496566E-01)
 number of electron     555.9999984 magnetization      47.0308614
 augmentation part      340.2671493 magnetization      40.6036445

 Broyden mixing:
  rms(total) = 0.11232E+01    rms(broyden)= 0.11225E+01
  rms(prec ) = 0.12770E+01
  weight for this iteration     100.00

 eigenvalues of (default mixing * dielectric matrix)
  average eigenvalue GAMMA=   0.3432
  1.1531  1.0535  1.0535  0.5655  0.5655  0.1748  0.1541  0.1389  0.1389  0.0989
  0.0989  0.0459  0.0725  0.0655  0.0549  0.0567

 Free energy of the ion-electron system (eV)
  ---------------------------------------------------
  alpha Z        PSCENC =       387.12086559
  Ewald energy   TEWEN  =    180958.51048671
  -Hartree energ DENC   =   -235764.27181842
  -exchange      EXHF   =         0.00000000
  -V(xc)+E(xc)   XCENC  =      1687.55974723
  PAW double counting   =     49976.13928663   -53729.61423943
  entropy T*S    EENTRO =        -0.66208832
  eigenvalues    EBANDS =     -3331.16904225
  atomic energy  EATOM  =     59560.90262231
  Solvation  Ediel_sol  =         0.00000000
  ---------------------------------------------------
  free energy    TOTEN  =      -255.48417994 eV

  energy without entropy =     -254.82209162  energy(sigma->0) =     -255.15313578


--------------------------------------------------------------------------------------------------------




--------------------------------------- Iteration      1(  22)  ---------------------------------------


    POTLOK:  cpu time    0.9479: real time    0.9499
    SETDIJ:  cpu time    0.0260: real time    0.0251
    EDDIAG:  cpu time    4.8243: real time    4.8360
  RMM-DIIS:  cpu time    9.4526: real time    9.4773
    ORTHCH:  cpu time    1.6557: real time    1.6589
       DOS:  cpu time    0.0030: real time    0.0022
    CHARGE:  cpu time    1.0948: real time    1.0977
    MIXING:  cpu time    0.0550: real time    0.0555
    --------------------------------------------
      LOOP:  cpu time   18.0593: real time   18.1025

 eigenvalue-minimisations  :  1528
 total energy-change (2. order) :-0.3273549E-01  (-0.2564757E-01)
 number of electron     555.9999993 magnetization      46.7447019
 augmentation part      340.3667761 magnetization      40.5461538

 Broyden mixing:
  rms(total) = 0.76700E+00    rms(broyden)= 0.76653E+00
  rms(prec ) = 0.88809E+00
  weight for this iteration     100.00

 eigenvalues of (default mixing * dielectric matrix)
  average eigenvalue GAMMA=   0.3422
  1.1640  1.0666  1.0666  0.5675  0.5675  0.3339  0.1760  0.1466  0.1466  0.1105
  0.0992  0.0847  0.0726  0.0459  0.0620  0.0553  0.0524

 Free energy of the ion-electron system (eV)
  ---------------------------------------------------
  alpha Z        PSCENC =       387.12086559
  Ewald energy   TEWEN  =    180958.51048671
  -Hartree energ DENC   =   -235774.15700079
  -exchange      EXHF   =         0.00000000
  -V(xc)+E(xc)   XCENC  =      1687.41181607
  PAW double counting   =     50004.37160978   -53758.74144469
  entropy T*S    EENTRO =        -0.68631142
  eigenvalues    EBANDS =     -3320.24955900
  atomic energy  EATOM  =     59560.90262231
  Solvation  Ediel_sol  =         0.00000000
  ---------------------------------------------------
  free energy    TOTEN  =      -255.51691543 eV

  energy without entropy =     -254.83060402  energy(sigma->0) =     -255.17375973


--------------------------------------------------------------------------------------------------------




--------------------------------------- Iteration      1(  23)  ---------------------------------------


    POTLOK:  cpu time    0.9449: real time    0.9469
    SETDIJ:  cpu time    0.0250: real time    0.0244
    EDDIAG:  cpu time    4.8553: real time    4.8661
  RMM-DIIS:  cpu time    9.4346: real time    9.4586
    ORTHCH:  cpu time    1.7687: real time    1.7723
       DOS:  cpu time    0.0010: real time    0.0013
    CHARGE:  cpu time    1.0878: real time    1.0894
    MIXING:  cpu time    0.0610: real time    0.0615
    --------------------------------------------
      LOOP:  cpu time   18.1782: real time   18.2206

 eigenvalue-minimisations  :  1528
 total energy-change (2. order) :-0.2096423E+00  (-0.1826192E-01)
 number of electron     556.0000002 magnetization      46.0869180
 augmentation part      340.4625336 magnetization      40.0607198

 Broyden mixing:
  rms(total) = 0.90714E+00    rms(broyden)= 0.90680E+00
  rms(prec ) = 0.10356E+01
  weight for this iteration     100.00

 eigenvalues of (default mixing * dielectric matrix)
  average eigenvalue GAMMA=   0.3654
  1.3979  0.9981  0.9981  0.7458  0.7458  0.5514  0.1772  0.1463  0.1463  0.1194
  0.1046  0.0952  0.0739  0.0459  0.0665  0.0593  0.0547  0.0507

 Free energy of the ion-electron system (eV)
  ---------------------------------------------------
  alpha Z        PSCENC =       387.12086559
  Ewald energy   TEWEN  =    180958.51048671
  -Hartree energ DENC   =   -235783.80397415
  -exchange      EXHF   =         0.00000000
  -V(xc)+E(xc)   XCENC  =      1687.36882265
  PAW double counting   =     50026.67759610   -53781.58012541
  entropy T*S    EENTRO =        -0.69522630
  eigenvalues    EBANDS =     -3310.22762523
  atomic energy  EATOM  =     59560.90262231
  Solvation  Ediel_sol  =         0.00000000
  ---------------------------------------------------
  free energy    TOTEN  =      -255.72655772 eV

  energy without entropy =     -255.03133142  energy(sigma->0) =     -255.37894457


--------------------------------------------------------------------------------------------------------




--------------------------------------- Iteration      1(  24)  ---------------------------------------


    POTLOK:  cpu time    0.9439: real time    0.9465
    SETDIJ:  cpu time    0.0250: real time    0.0242
    EDDIAG:  cpu time    4.8213: real time    4.8312
  RMM-DIIS:  cpu time    9.4476: real time    9.4723
    ORTHCH:  cpu time    1.6607: real time    1.6641
       DOS:  cpu time    0.0030: real time    0.0024
    CHARGE:  cpu time    1.0858: real time    1.0892
    MIXING:  cpu time    0.0660: real time    0.0651
    --------------------------------------------
      LOOP:  cpu time   18.0533: real time   18.0950

 eigenvalue-minimisations  :  1525
 total energy-change (2. order) :-0.5198572E+00  (-0.2657644E-01)
 number of electron     555.9999991 magnetization      45.8283176
 augmentation part      340.4471981 magnetization      40.1227179

 Broyden mixing:
  rms(total) = 0.67849E+00    rms(broyden)= 0.67819E+00
  rms(prec ) = 0.75983E+00
  weight for this iteration     100.00

 eigenvalues of (default mixing * dielectric matrix)
  average eigenvalue GAMMA=   0.3642
  1.6166  0.9623  0.9623  0.7881  0.7881  0.5460  0.1814  0.1476  0.1476  0.1228
  0.1228  0.0928  0.0928  0.0725  0.0675  0.0459  0.0583  0.0545  0.0503

 Free energy of the ion-electron system (eV)
  ---------------------------------------------------
  alpha Z        PSCENC =       387.12086559
  Ewald energy   TEWEN  =    180958.51048671
  -Hartree energ DENC   =   -235808.27640776
  -exchange      EXHF   =         0.00000000
  -V(xc)+E(xc)   XCENC  =      1687.00818820
  PAW double counting   =     50068.43085758   -53824.75567436
  entropy T*S    EENTRO =        -0.70798591
  eigenvalues    EBANDS =     -3284.47936729
  atomic energy  EATOM  =     59560.90262231
  Solvation  Ediel_sol  =         0.00000000
  ---------------------------------------------------
  free energy    TOTEN  =      -256.24641494 eV

  energy without entropy =     -255.53842902  energy(sigma->0) =     -255.89242198


--------------------------------------------------------------------------------------------------------




--------------------------------------- Iteration      1(  25)  ---------------------------------------


    POTLOK:  cpu time    0.9409: real time    0.9454
    SETDIJ:  cpu time    0.0270: real time    0.0256
    EDDIAG:  cpu time    4.8273: real time    4.8384
  RMM-DIIS:  cpu time    9.4386: real time    9.4641
    ORTHCH:  cpu time    1.6577: real time    1.6615
       DOS:  cpu time    0.0020: real time    0.0009
    CHARGE:  cpu time    1.0928: real time    1.0963
    MIXING:  cpu time    0.0690: real time    0.0680
    --------------------------------------------
      LOOP:  cpu time   18.0553: real time   18.1002

 eigenvalue-minimisations  :  1528
 total energy-change (2. order) :-0.1272547E+00  (-0.1267949E-01)
 number of electron     556.0000001 magnetization      45.7398756
 augmentation part      340.4358292 magnetization      40.1629054

 Broyden mixing:
  rms(total) = 0.41299E+00    rms(broyden)= 0.41280E+00
  rms(prec ) = 0.45602E+00
  weight for this iteration     100.00

 eigenvalues of (default mixing * dielectric matrix)
  average eigenvalue GAMMA=   0.3566
  1.6575  0.9443  0.9443  0.8016  0.8016  0.5033  0.2607  0.1664  0.1472  0.1472
  0.1250  0.0988  0.0988  0.0877  0.0731  0.0459  0.0642  0.0588  0.0546  0.0502

 Free energy of the ion-electron system (eV)
  ---------------------------------------------------
  alpha Z        PSCENC =       387.12086559
  Ewald energy   TEWEN  =    180958.51048671
  -Hartree energ DENC   =   -235817.05942447
  -exchange      EXHF   =         0.00000000
  -V(xc)+E(xc)   XCENC  =      1686.92717033
  PAW double counting   =     50081.59653877   -53838.27663531
  entropy T*S    EENTRO =        -0.71940093
  eigenvalues    EBANDS =     -3275.37589262
  atomic energy  EATOM  =     59560.90262231
  Solvation  Ediel_sol  =         0.00000000
  ---------------------------------------------------
  free energy    TOTEN  =      -256.37366961 eV

  energy without entropy =     -255.65426868  energy(sigma->0) =     -256.01396915


--------------------------------------------------------------------------------------------------------




--------------------------------------- Iteration      1(  26)  ---------------------------------------


    POTLOK:  cpu time    0.9489: real time    0.9515
    SETDIJ:  cpu time    0.0230: real time    0.0229
    EDDIAG:  cpu time    4.8473: real time    4.8593
  RMM-DIIS:  cpu time    9.4506: real time    9.4752
    ORTHCH:  cpu time    1.6637: real time    1.6655
       DOS:  cpu time    0.0020: real time    0.0026
    CHARGE:  cpu time    1.1098: real time    1.1126
    MIXING:  cpu time    0.0730: real time    0.0727
    --------------------------------------------
      LOOP:  cpu time   18.1182: real time   18.1624

 eigenvalue-minimisations  :  1528
 total energy-change (2. order) :-0.8902508E-01  (-0.2580645E-02)
 number of electron     555.9999999 magnetization      45.6101945
 augmentation part      340.4314246 magnetization      40.0403608

 Broyden mixing:
  rms(total) = 0.45135E+00    rms(broyden)= 0.45131E+00
  rms(prec ) = 0.50994E+00
  weight for this iteration     100.00

 eigenvalues of (default mixing * dielectric matrix)
  average eigenvalue GAMMA=   0.3533
  1.6908  0.9163  0.9163  0.8289  0.8289  0.4508  0.4508  0.1688  0.1460  0.1460
  0.1213  0.1213  0.1088  0.0955  0.0806  0.0720  0.0459  0.0663  0.0584  0.0545
  0.0502

 Free energy of the ion-electron system (eV)
  ---------------------------------------------------
  alpha Z        PSCENC =       387.12086559
  Ewald energy   TEWEN  =    180958.51048671
  -Hartree energ DENC   =   -235819.17461937
  -exchange      EXHF   =         0.00000000
  -V(xc)+E(xc)   XCENC  =      1686.87198359
  PAW double counting   =     50082.07382799   -53838.74413647
  entropy T*S    EENTRO =        -0.72561179
  eigenvalues    EBANDS =     -3273.29811326
  atomic energy  EATOM  =     59560.90262231
  Solvation  Ediel_sol  =         0.00000000
  ---------------------------------------------------
  free energy    TOTEN  =      -256.46269469 eV

  energy without entropy =     -255.73708290  energy(sigma->0) =     -256.09988880


--------------------------------------------------------------------------------------------------------




--------------------------------------- Iteration      1(  27)  ---------------------------------------


    POTLOK:  cpu time    0.9499: real time    0.9521
[...]
 -0.033  -0.014   0.002  -0.020  -0.014   0.003   0.001  -0.003  -0.002   0.068  -0.009  -0.004   0.035  -0.004   0.046  -0.003
  0.002   0.002   0.008  -0.004   0.001   0.031   0.011   0.080  -0.053  -0.009   1.245  -0.299  -0.066   0.031   0.107   0.011
 -0.023  -0.007  -0.027   0.020   0.009   0.003   0.001  -0.018   0.010  -0.004  -0.299   0.100   0.031  -0.017  -0.050  -0.004
  0.029   0.008   0.013  -0.008   0.002   0.043   0.014   0.013   0.004   0.035  -0.066   0.031   0.137   0.007   0.020  -0.010
 -0.010  -0.009  -0.001   0.013   0.006   0.006  -0.034   0.026   0.055  -0.004   0.031  -0.017   0.007   0.192  -0.025  -0.000
 -0.031  -0.009  -0.020   0.019   0.023  -0.020   0.005  -0.023   0.008   0.046   0.107  -0.050   0.020  -0.025   0.123  -0.000
 -0.009  -0.003  -0.003   0.000  -0.006  -0.003  -0.001  -0.001  -0.001  -0.003   0.011  -0.004  -0.010  -0.000  -0.000   0.001
  0.000   0.006  -0.003  -0.009  -0.000  -0.001   0.003  -0.002  -0.004   0.000  -0.005   0.002  -0.000  -0.013   0.001  -0.000
  0.006   0.000   0.005  -0.003  -0.009   0.001  -0.001   0.001  -0.000  -0.004  -0.017   0.006  -0.000   0.001  -0.009  -0.000
 total augmentation occupancy for first ion, spin component:           2
  0.148   0.016   0.024  -0.037  -0.060  -0.076  -0.002  -0.002   0.008   0.018  -0.036  -0.008  -0.014   0.006   0.021  -0.000
  0.016   0.127   0.009  -0.011  -0.024  -0.002  -0.078  -0.002  -0.000   0.009  -0.012  -0.002  -0.005   0.002   0.008  -0.000
  0.024   0.009   0.158  -0.040  -0.017  -0.000  -0.001  -0.088   0.013   0.002  -0.011   0.004  -0.009   0.003   0.015  -0.000
 -0.037  -0.011  -0.040   0.138  -0.012   0.008  -0.001   0.014  -0.079   0.008   0.013  -0.001   0.008  -0.004  -0.014   0.000
 -0.060  -0.024  -0.017  -0.012   0.060   0.018   0.009   0.002   0.007  -0.050   0.020   0.005   0.007  -0.003  -0.010   0.000
 -0.076  -0.002  -0.000   0.008   0.018   0.005   0.001   0.000  -0.001  -0.003   0.003   0.002   0.000  -0.000  -0.001   0.000
 -0.002  -0.078  -0.001  -0.001   0.009   0.001   0.006  -0.000  -0.000  -0.001   0.001   0.001  -0.000   0.001  -0.001   0.000
 -0.002  -0.002  -0.088   0.014   0.002   0.000  -0.000   0.009  -0.003  -0.000   0.003   0.002   0.001  -0.001  -0.002   0.000
  0.008  -0.000   0.013  -0.079   0.007  -0.001  -0.000  -0.003   0.007  -0.001  -0.002  -0.002  -0.001  -0.001   0.002  -0.000
  0.018   0.009   0.002   0.008  -0.050  -0.003  -0.001  -0.000  -0.001   0.002  -0.002  -0.001  -0.002  -0.000  -0.000   0.000
 -0.036  -0.012  -0.011   0.013   0.020   0.003   0.001   0.003  -0.002  -0.002   0.002   0.035   0.003  -0.007  -0.004  -0.000
 -0.008  -0.002   0.004  -0.001   0.005   0.002   0.001   0.002  -0.002  -0.001   0.035  -0.016  -0.002   0.001   0.003   0.000
 -0.014  -0.005  -0.009   0.008   0.007   0.000  -0.000   0.001  -0.001  -0.002   0.003  -0.002  -0.011  -0.002  -0.005   0.001
  0.006   0.002   0.003  -0.004  -0.003  -0.000   0.001  -0.001  -0.001  -0.000  -0.007   0.001  -0.002  -0.010   0.002   0.000
  0.021   0.008   0.015  -0.014  -0.010  -0.001  -0.001  -0.002   0.002  -0.000  -0.004   0.003  -0.005   0.002  -0.006   0.000
 -0.000  -0.000  -0.000   0.000   0.000   0.000   0.000   0.000  -0.000   0.000  -0.000   0.000   0.001   0.000   0.000  -0.000
  0.000   0.000   0.000  -0.000  -0.000   0.000  -0.000   0.000   0.000  -0.000   0.000  -0.000   0.000   0.001  -0.000  -0.000
  0.001   0.000   0.000  -0.000  -0.000  -0.000   0.000  -0.000   0.000   0.000   0.000  -0.001   0.000  -0.000   0.001  -0.000


------------------------ aborting loop because EDIFF is reached ----------------------------------------


    CHARGE:  cpu time    1.1128: real time    1.1162
    FORLOC:  cpu time    0.1180: real time    0.1174
    FORNL :  cpu time    3.2235: real time    3.2344
    FORCOR:  cpu time    0.9219: real time    0.9246
    FORHAR:  cpu time    0.2030: real time    0.2040
    MIXING:  cpu time    0.1340: real time    0.1348
    OFIELD:  cpu time    0.0000: real time    0.0000

 VOLUME and BASIS-vectors are now :
 -----------------------------------------------------------------------------
  energy-cutoff  :      400.00
  volume of cell :     8000.00
      direct lattice vectors                 reciprocal lattice vectors
    20.000000000  0.000000000  0.000000000     0.050000000  0.000000000  0.000000000
     0.000000000 20.000000000  0.000000000     0.000000000  0.050000000  0.000000000
     0.000000000  0.000000000 20.000000000     0.000000000  0.000000000  0.050000000

  length of vectors
    20.000000000 20.000000000 20.000000000     0.050000000  0.050000000  0.050000000


 FORCES acting on ions
    electron-ion (+dipol)            ewald-force                    non-local-force                 convergence-correction
 -----------------------------------------------------------------------------------------------
   0.182E+04 -.116E+04 0.604E+03   -.182E+04 0.116E+04 -.604E+03   -.216E+01 0.136E+01 -.510E+00   -.341E-03 0.308E-03 0.583E-03
   0.716E+03 -.189E+04 0.962E+03   -.715E+03 0.189E+04 -.961E+03   -.694E+00 0.211E+01 -.101E+01   0.237E-03 0.291E-03 0.405E-03
   0.115E+04 -.189E+04 -.358E+03   -.115E+04 0.188E+04 0.358E+03   -.132E+01 0.210E+01 0.443E+00   -.806E-04 0.362E-04 0.407E-03
   0.304E+02 -.227E+04 0.720E+00   -.303E+02 0.227E+04 -.591E+00   -.232E-01 0.690E+01 -.119E+00   0.329E-03 -.738E-04 0.249E-03
   0.127E+02 -.130E+04 0.536E+01   -.128E+02 0.130E+04 -.532E+01   0.527E-01 0.781E+00 -.516E-01   0.563E-03 0.292E-03 0.340E-03
   -.676E+03 -.191E+04 0.958E+03   0.675E+03 0.190E+04 -.957E+03   0.685E+00 0.217E+01 -.979E+00   0.604E-03 -.112E-03 0.308E-03
   -.111E+04 -.191E+04 -.363E+03   0.110E+04 0.191E+04 0.363E+03   0.128E+01 0.224E+01 0.477E+00   0.195E-03 -.160E-03 -.384E-04
   0.197E+04 -.103E+04 -.631E+03   -.196E+04 0.103E+04 0.630E+03   -.590E+01 0.291E+01 0.180E+01   0.165E-04 0.261E-03 0.206E-03
   0.182E+04 0.574E+01 -.127E+04   -.181E+04 -.593E+01 0.127E+04   -.188E+01 0.183E+00 0.205E+01   -.131E-03 0.718E-03 0.112E-03
   0.111E+04 -.581E+03 -.339E+03   -.111E+04 0.580E+03 0.339E+03   -.733E+00 0.338E+00 0.831E-01   -.151E-03 0.616E-03 0.473E-03
   0.115E+04 -.118E+04 -.151E+04   -.115E+04 0.118E+04 0.151E+04   -.157E+01 0.169E+01 0.167E+01   -.470E-04 0.313E-03 -.183E-04
   0.226E+02 -.190E+04 -.117E+04   -.225E+02 0.190E+04 0.117E+04   -.101E+00 0.209E+01 0.128E+01   0.111E-03 -.770E-05 0.758E-05
   0.117E+02 -.586E+03 -.114E+04   -.119E+02 0.585E+03 0.114E+04   0.249E+00 0.551E+00 0.433E+00   0.141E-03 0.542E-03 0.173E-03
   -.110E+04 -.598E+03 -.352E+03   0.110E+04 0.597E+03 0.352E+03   0.651E+00 0.386E+00 0.743E-01   0.280E-03 0.749E-03 -.135E-03
   -.112E+04 -.121E+04 -.153E+04   0.112E+04 0.121E+04 0.152E+04   0.117E+01 0.137E+01 0.156E+01   0.562E-04 0.250E-03 -.177E-03
   0.123E+04 -.103E+04 0.167E+04   -.123E+04 0.103E+04 -.166E+04   -.355E+01 0.299E+01 -.505E+01   -.181E-03 0.218E-03 -.153E-03
   0.180E+04 0.152E+02 0.133E+04   -.180E+04 -.152E+02 -.133E+04   -.189E+01 0.345E-01 -.167E+01   -.286E-03 0.383E-04 -.524E-04
   0.692E+03 0.509E+00 0.211E+04   -.691E+03 -.383E+00 -.211E+04   -.967E+00 -.127E+00 -.232E+01   0.355E-03 -.288E-03 -.297E-03
   0.688E+03 -.575E+03 0.944E+03   -.688E+03 0.574E+03 -.943E+03   -.397E+00 0.335E+00 -.611E+00   0.411E-03 0.185E-03 0.313E-03
   0.926E+01 -.119E+04 0.189E+04   -.918E+01 0.119E+04 -.189E+04   -.724E-01 0.134E+01 -.204E+01   0.749E-03 0.716E-04 0.126E-04
   -.801E+01 0.577E+03 0.116E+04   0.801E+01 -.577E+03 -.116E+04   0.378E-03 -.313E+00 -.729E+00   0.478E-03 -.214E-03 -.224E-03
   -.705E+03 -.129E+02 0.210E+04   0.705E+03 0.129E+02 -.210E+04   0.773E+00 -.726E-01 -.232E+01   0.386E-03 0.757E-04 0.353E-04
   -.680E+03 -.594E+03 0.938E+03   0.680E+03 0.593E+03 -.937E+03   0.496E+00 0.380E+00 -.439E+00   0.667E-03 0.371E-03 0.100E-03
   0.222E+04 0.222E+02 0.206E+02   -.221E+04 -.222E+02 -.206E+02   -.247E+01 -.167E-01 -.663E-01   -.323E-03 0.559E-03 0.327E-03
   0.180E+04 0.121E+04 -.553E+03   -.180E+04 -.120E+04 0.553E+03   -.254E+01 -.147E+01 -.366E+00   -.969E-04 -.680E-04 0.760E-04
   0.109E+04 0.593E+03 0.368E+03   -.109E+04 -.592E+03 -.368E+03   -.604E+00 -.365E+00 0.207E-01   0.204E-03 -.290E-04 0.586E-04
   0.663E+03 0.579E+03 -.918E+03   -.663E+03 -.579E+03 0.918E+03   -.213E+00 -.141E+00 0.839E-01   0.218E-03 0.236E-03 0.184E-03
   -.357E+01 -.353E+01 0.108E+02   0.365E+01 0.357E+01 -.108E+02   -.740E-01 -.317E-01 -.219E-01   0.437E-03 0.436E-03 0.471E-04
   -.251E+02 0.129E+04 0.234E+02   0.252E+02 -.129E+04 -.233E+02   -.597E-01 -.808E+00 -.129E+00   0.261E-03 -.538E-03 -.825E-04
   -.111E+04 0.564E+03 0.367E+03   0.111E+04 -.564E+03 -.367E+03   0.688E+00 -.260E+00 -.259E+00   0.593E-05 0.349E-03 -.204E-03
   -.690E+03 0.575E+03 -.917E+03   0.689E+03 -.575E+03 0.916E+03   0.681E+00 -.135E+00 0.303E+00   0.118E-03 0.105E-03 0.178E-03
   -.179E+04 -.121E+04 0.591E+03   0.179E+04 0.121E+04 -.591E+03   0.191E+01 0.129E+01 -.659E+00   -.136E-03 0.185E-03 0.105E-03
   -.194E+04 -.107E+04 -.649E+03   0.194E+04 0.107E+04 0.647E+03   0.575E+01 0.312E+01 0.187E+01   -.229E-03 0.287E-03 -.161E-03
   -.182E+04 -.278E+02 -.130E+04   0.182E+04 0.278E+02 0.130E+04   0.199E+01 -.703E-02 0.129E+01   0.469E-04 0.444E-03 0.862E-04
   -.122E+04 -.106E+04 0.166E+04   0.121E+04 0.106E+04 -.166E+04   0.355E+01 0.309E+01 -.484E+01   0.291E-03 0.573E-04 0.268E-03
   -.181E+04 -.250E+02 0.132E+04   0.180E+04 0.251E+02 -.132E+04   0.203E+01 -.605E-01 -.141E+01   -.880E-04 0.551E-03 -.874E-04
   -.222E+04 -.314E+02 0.594E+01   0.221E+04 0.313E+02 -.599E+01   0.262E+01 0.190E-01 0.430E-01   -.294E-04 0.679E-03 -.346E-04
   -.182E+04 0.116E+04 -.572E+03   0.182E+04 -.116E+04 0.572E+03   0.198E+01 -.133E+01 0.625E+00   -.241E-05 -.135E-03 0.202E-03
   0.688E+03 -.127E+03 -.198E+04   -.687E+03 0.128E+03 0.198E+04   -.111E+00 -.173E+01 0.702E+00   0.136E-03 0.585E-03 0.966E-04
   -.446E+01 -.109E+04 -.202E+04   0.421E+01 0.109E+04 0.201E+04   0.257E+00 0.297E+01 0.647E+01   0.277E-04 0.203E-03 -.626E-04
   -.746E+03 -.436E+02 -.207E+04   0.746E+03 0.442E+02 0.206E+04   0.684E-01 -.580E+00 0.323E+01   0.127E-03 0.332E-03 0.130E-03
   0.128E+04 0.107E+04 -.148E+04   -.128E+04 -.107E+04 0.148E+04   -.111E+01 -.128E+01 0.320E+01   -.166E-04 0.754E-06 0.104E-03
   0.671E+03 0.191E+04 -.906E+03   -.671E+03 -.190E+04 0.904E+03   -.402E+00 -.227E+01 0.159E+01   0.469E-03 -.460E-03 -.120E-03
   -.117E+03 0.120E+04 -.174E+04   0.119E+03 -.120E+04 0.174E+04   -.143E+01 0.446E+00 0.112E+01   0.387E-03 -.126E-03 0.850E-04
   -.726E+03 0.189E+04 -.923E+03   0.725E+03 -.189E+04 0.922E+03   0.984E+00 -.254E+01 0.851E+00   0.233E-04 -.406E-03 -.339E-04
   -.128E+04 0.103E+04 -.163E+04   0.128E+04 -.103E+04 0.163E+04   0.376E+01 -.283E+01 0.535E+01   0.725E-04 -.102E-03 0.215E-03
   0.110E+04 0.119E+04 0.155E+04   -.110E+04 -.119E+04 -.155E+04   -.117E+01 -.119E+01 -.192E+01   0.334E-03 -.436E-03 -.259E-03
   -.164E+02 0.104E+04 0.205E+04   0.163E+02 -.103E+04 -.204E+04   0.226E-01 -.294E+01 -.621E+01   0.206E-03 -.219E-03 -.562E-04
   -.114E+04 0.116E+04 0.155E+04   0.114E+04 -.116E+04 -.154E+04   0.133E+01 -.123E+01 -.167E+01   -.159E-03 -.681E-05 -.193E-03
   0.194E+04 0.106E+04 0.674E+03   -.193E+04 -.106E+04 -.672E+03   -.583E+01 -.326E+01 -.134E+01   -.270E-03 -.228E-03 -.138E-03
   0.110E+04 0.191E+04 0.390E+03   -.110E+04 -.191E+04 -.390E+03   -.121E+01 -.211E+01 -.472E+00   0.429E-03 -.548E-03 -.123E-03
   -.238E+02 0.189E+04 0.119E+04   0.237E+02 -.189E+04 -.119E+04   0.409E-01 -.230E+01 -.121E+01   0.136E-03 -.315E-03 -.666E-04
   -.115E+04 0.188E+04 0.382E+03   0.115E+04 -.188E+04 -.382E+03   0.125E+01 -.216E+01 -.396E+00   -.295E-03 -.405E-03 -.326E-04
   -.196E+04 0.102E+04 0.652E+03   0.196E+04 -.102E+04 -.650E+03   0.593E+01 -.292E+01 -.203E+01   0.548E-04 0.657E-04 -.190E-03
   -.345E+02 0.227E+04 0.216E+02   0.345E+02 -.227E+04 -.215E+02   -.901E-02 -.684E+01 -.788E-01   0.143E-03 -.170E-03 -.477E-04
   0.265E+03 0.399E+03 -.118E+04   -.265E+03 -.399E+03 0.118E+04   0.490E+00 0.914E+00 -.322E+01   0.129E-03 0.260E-04 0.304E-03
 -----------------------------------------------------------------------------------------------
   -.226E+01 -.276E+01 0.750E+01   -.284E-12 -.136E-11 -.227E-12   0.220E+01 0.278E+01 -.751E+01   0.697E-02 0.539E-02 0.320E-02
 
 
 POSITION                                       TOTAL-FORCE (eV/Angst)
 -----------------------------------------------------------------------------------
      6.99815     11.92164      8.20548         0.010280     -0.005151      0.003010
      9.02577     13.26307      7.55306         0.000110     -0.006787      0.008383
      8.23443     13.25605      9.94174        -0.004258     -0.008356      0.005090
     10.25476     14.47124      9.29084         0.002476     -0.007939      0.010905
     10.29163     12.17204      9.29010        -0.004125      0.007592     -0.008690
     11.53918     13.30164      7.55867        -0.006398     -0.002838      0.000042
     12.31093     13.30621      9.94126         0.007842      0.001489      0.003000
      6.33369     11.85169     10.56216        -0.007719     -0.001514      0.006468
      7.02095      9.76002     11.64870        -0.005674     -0.004063     -0.005096
      8.29938     10.85287      9.92834         0.006896     -0.001273      0.007338
      8.24993     11.91927     12.09394         0.005972     -0.003233      0.002330
     10.27079     13.27001     11.42669        -0.002031      0.008473      0.006468
     10.28836     10.85829     11.40894         0.012747      0.001749      0.006212
     12.30508     10.89136      9.94033         0.004550      0.001577     -0.001017
     12.31749     11.97436     12.08983         0.007895     -0.000386     -0.006174
      7.85309     11.87672      5.91155         0.000612      0.002808      0.005867
      7.03709      9.78124      6.88505         0.004145     -0.000291      0.004329
      9.07949      9.82037      5.40100        -0.001664     -0.001635      0.003351
      9.06995     10.85374      7.57842         0.000458     -0.003412     -0.006299
     10.30352     11.95870      5.81933         0.004944      0.010924      0.003116
     10.33029      8.76931      7.17564        -0.003886     -0.001954     -0.002656
     11.58208      9.84612      5.41246         0.006517     -0.004522     -0.004113
     11.55008     10.89037      7.58639         0.001880     -0.005813     -0.012615
      6.24919      9.75721      9.28216        -0.006523      0.009101     -0.009249
      7.03384      7.62387     10.34441         0.006346      0.005855      0.000163
      8.32398      8.73207      8.65066        -0.002894     -0.000949     -0.010916
      9.09877      8.74748     11.00105        -0.010266     -0.009510     -0.022794
     10.31640      9.81330      9.29347         0.009491     -0.001020      0.001304
     10.35254      7.45652      9.27368        -0.000133      0.000257      0.012324
     12.33845      8.78976      8.63570        -0.001139      0.003732     -0.010017
     11.55774      8.76223     11.00286         0.014327     -0.006393      0.004368
     13.59112     12.00055      8.22134        -0.006486     -0.001951     -0.002371
     14.24219     11.93702     10.58175         0.000816      0.002669     -0.009602
     13.60403      9.84669     11.67814         0.003750      0.004107     -0.007051
     12.74724     11.93626      5.92367        -0.009288     -0.005150     -0.002657
     13.61855      9.86241      6.89180        -0.010663     -0.005103      0.008555
     14.39170      9.86713      9.27904         0.001476      0.001451     -0.005053
     13.63254      7.71411     10.35331        -0.000923      0.000173     -0.001923
      9.04809      9.83155     13.26645         0.017253     -0.008474     -0.005361
     10.28824     11.92852     13.44955         0.006579     -0.006944     -0.002592
     11.59453      9.83988     13.14686        -0.000949      0.000873      0.001920
      7.85708      7.67750     12.65805        -0.002484     -0.001800      0.003500
      9.08662      6.34554     10.99001        -0.005046      0.004056     -0.009946
     10.38645      7.61896     12.83776        -0.005908      0.016394      0.001561
     11.61033      6.36250     11.01984        -0.005359      0.009034     -0.003986
     12.81908      7.74197     12.63913         0.000916      0.008886      0.006400
      8.31461      7.66351      6.47384         0.009050      0.007262      0.008621
     10.34741      7.74604      5.11299        -0.002575     -0.002287      0.002229
     12.38122      7.71202      6.47922        -0.002541      0.002818      0.009886
      6.39004      7.69444      7.96210        -0.006561      0.008584     -0.012231
      8.32060      6.33264      8.62074        -0.000314     -0.005233     -0.015942
     10.36147      6.35680      7.12980        -0.004245      0.013059      0.007762
     12.39613      6.37744      8.60943        -0.002808     -0.006474     -0.001592
     14.30489      7.78300      7.99743        -0.011100      0.001456      0.006133
     10.38035      5.16124      9.26960        -0.001671      0.001400      0.006430
      8.99667      8.02072     14.44368        -0.011693     -0.015323      0.022876
 -----------------------------------------------------------------------------------
    total drift:                               -0.050270      0.016769     -0.002857


--------------------------------------------------------------------------------------------------------



  FREE ENERGIE OF THE ION-ELECTRON SYSTEM (eV)
  ---------------------------------------------------
  free  energy   TOTEN  =      -262.60182767 eV

  energy  without entropy=     -261.92562417  energy(sigma->0) =     -262.26372592
 
 d Force = 0.1265252E-02[ 0.681E-03, 0.185E-02]  d Energy = 0.1270862E-02-0.561E-05
 d Force =-0.1319598E+02[-0.132E+02,-0.132E+02]  d Ewald  =-0.1319597E+02-0.709E-05


--------------------------------------------------------------------------------------------------------


    POTLOK:  cpu time    0.9689: real time    0.9715


--------------------------------------------------------------------------------------------------------


 Conjugate gradient step on ions:
 trial-energy change:   -0.001271  1 .order   -0.001265   -0.001849   -0.000681
  (g-gl).g = 0.500E-03      g.g   = 0.530E-03  gl.gl    = 0.637E-03
 g(Force)  = 0.530E-03   g(Stress)= 0.000E+00 ortho     = 0.164E-04
 gamma     =   0.78490
 trial     =   3.40729
 opt step  =   5.30788  (harmonic =   5.39317) maximal distance =0.00478469
 next E    =  -262.602019   (d E  =  -0.00146)


--------------------------------------------------------------------------------------------------------


  
 reached required accuracy - stopping structural energy minimisation
     LOOP+:  cpu time  558.3521: real time  560.6275
    4ORBIT:  cpu time    0.0000: real time    0.0000

 total amount of memory used by VASP MPI-rank0   256272. kBytes
=======================================================================

   base      :      30000. kBytes
   nonlr-proj:      12280. kBytes
   fftplans  :      16788. kBytes
   grid      :     106586. kBytes
   one-center:       1741. kBytes
   wavefun   :      88877. kBytes
 
  
  
 General timing and accounting informations for this job:
 ========================================================
  
                  Total CPU time used (sec):     5841.700
                            User time (sec):     5731.484
                          System time (sec):      110.216
                         Elapsed time (sec):     5857.545
  
                   Maximum memory used (kb):      569432.
                   Average memory used (kb):           0.
  
                          Minor page faults:      3731134
                          Major page faults:            0
                 Voluntary context switches:           68
