<?xml version="1.0" encoding="ISO-8859-1"?>
<modeling>
 <generator>
  <i name="program" type="string">vasp </i>
  <i name="version" type="string">5.4.4.18Apr17-6-g9f103f2a35  </i>
  <i name="subversion" type="string">(build Dec 11 2018 16:16:58) complex            parallel </i>
  <i name="platform" type="string">LinuxIFC </i>
  <i name="date" type="string">2020 07 21 </i>
  <i name="time" type="string">15:02:19 </i>
 </generator>
 <incar>
  <i type="string" name="SYSTEM"> 1x1_001_aAl2O3</i>
  <i type="int" name="ISTART">     0</i>
  <i type="string" name="PREC">normal  ! precision parameter, typicall</i>
  <i type="string" name="ALGO"> fast   ! sets SCF algorithm.  fast: com</i>
  <i type="int" name="ISPIN">     2</i>
  <i type="int" name="NELM">   100</i>
  <i type="int" name="IBRION">     2</i>
  <i type="int" name="NFREE">     5</i>
  <i name="EDIFF">      0.00000100</i>
  <i name="EDIFFG">     -0.03000000</i>
  <i type="int" name="NSW">   100</i>
  <i type="int" name="ISIF">     0</i>
  <i name="SYMPREC">      0.00000100</i>
  <i name="ENCUT">    400.00000000</i>
  <i name="POTIM">      0.20000000</i>
  <i type="string" name="LREAL"> auto  ! how to numerically handle core</i>
  <i type="int" name="ISMEAR">     0</i>
  <i name="SIGMA">      0.10000000</i>
  <i type="int" name="NWRITE">     1</i>
  <i type="logical" name="LWAVE"> F  </i>
  <i type="logical" name="LCHARG"> F  </i>
  <i type="logical" name="LVTOT"> F  </i>
  <v type="int" name="KPOINT_BSE">    -1     0     0     0</v>
  <i type="int" name="NELM">   100</i>
 </incar>
 <structure name="primitive_cell" >
  <crystal>
   <varray name="basis" >
    <v>      20.00000000       0.00000000       0.00000000 </v>
    <v>       0.00000000      20.00000000       0.00000000 </v>
    <v>       0.00000000       0.00000000      20.00000000 </v>
   </varray>
   <i name="volume">   8000.00000000 </i>
   <varray name="rec_basis" >
    <v>       0.05000000       0.00000000       0.00000000 </v>
    <v>       0.00000000       0.05000000       0.00000000 </v>
    <v>       0.00000000       0.00000000       0.05000000 </v>
   </varray>
  </crystal>
  <varray name="positions" >
   <v>       0.34999999      -0.40390003       0.41023001 </v>
   <v>       0.41481999      -0.45690000       0.49675000 </v>
   <v>       0.45361000      -0.45758998       0.37911001 </v>
   <v>       0.31621998      -0.40671998      -0.47240001 </v>
   <v>       0.39269999      -0.40680999       0.29561001 </v>
   <v>       0.41144002      -0.33666003       0.49592999 </v>
   <v>       0.35174000       0.48896000       0.34492999 </v>
   <v>       0.45111999      -0.33701998       0.37739000 </v>
   <v>       0.31229001       0.48839000       0.46421999 </v>
   <v>      -0.48544002      -0.39142001       0.46454999 </v>
   <v>       0.41624001       0.43660000       0.43307000 </v>
   <v>       0.35165000       0.48844001      -0.41759002 </v>
   <v>      -0.48479998      -0.40201998       0.29126000 </v>
   <v>       0.45374000       0.49070001       0.27023000 </v>
   <v>       0.41226000      -0.40284002      -0.39567000 </v>
   <v>      -0.48412001       0.49059999       0.46496999 </v>
   <v>      -0.48710001      -0.27643001       0.46397001 </v>
   <v>       0.31948999       0.38475001       0.39871001 </v>
   <v>      -0.48341000       0.43858001       0.35894001 </v>
   <v>      -0.48606998      -0.45673001      -0.42956001 </v>
   <v>      -0.42243999      -0.45551997       0.37959999 </v>
   <v>       0.45506999       0.43731001      -0.44989997 </v>
   <v>      -0.48699999      -0.33556998      -0.42921001 </v>
   <v>       0.41586000       0.38284001       0.32444999 </v>
   <v>      -0.42303002      -0.33487999       0.37803999 </v>
   <v>       0.35187000       0.38130999      -0.48260999 </v>
   <v>      -0.38485998      -0.45569003       0.49803001 </v>
   <v>      -0.48196000       0.37242001       0.46355998 </v>
   <v>      -0.42085999       0.49233001       0.27079999 </v>
   <v>      -0.38468999      -0.33471000       0.49739999 </v>
   <v>       0.41635999       0.31641999       0.43090999 </v>
   <v>       0.45265999       0.49094000      -0.33677000 </v>
   <v>      -0.48646998      -0.40294999      -0.32789999 </v>
   <v>      -0.48280001       0.38745001       0.25582999 </v>
   <v>      -0.36229998      -0.40324003       0.29679000 </v>
   <v>      -0.38308001       0.43946001       0.43193999 </v>
   <v>       0.39315000       0.38383001      -0.36723000 </v>
   <v>      -0.42210001       0.43765000      -0.44985998 </v>
   <v>      -0.38496000      -0.40061003      -0.39552999 </v>
   <v>       0.45515999       0.31744999      -0.45060998 </v>
   <v>      -0.32093000      -0.40033001       0.41203999 </v>
   <v>      -0.48159999       0.31786001       0.35631999 </v>
   <v>      -0.38104999       0.38558999       0.32365999 </v>
   <v>      -0.42072999       0.49200001      -0.34307998 </v>
   <v>      -0.31892997       0.49320999       0.34472001 </v>
   <v>      -0.48091000       0.38150001      -0.35790002 </v>
   <v>      -0.28792000      -0.40315002      -0.47022998 </v>
   <v>       0.44926000       0.40059999      -0.27714002 </v>
   <v>      -0.48047000       0.25764999       0.46280000 </v>
   <v>      -0.28048998       0.49331000       0.46399999 </v>
   <v>      -0.31966001       0.49168000      -0.41626000 </v>
   <v>      -0.37988001       0.31862000       0.42938000 </v>
   <v>      -0.41842997       0.31762001      -0.44972998 </v>
   <v>      -0.31803000       0.38521001      -0.48307002 </v>
   <v>      -0.28499001       0.38927999       0.39916000 </v>
   <v>      -0.35878998       0.38648999      -0.36857998 </v>
  </varray>
 </structure>
 <varray name="primitive_index" >
  <v type="int" >        1 </v>
  <v type="int" >       10 </v>
  <v type="int" >       19 </v>
  <v type="int" >        8 </v>
  <v type="int" >       16 </v>
  <v type="int" >        3 </v>
  <v type="int" >       17 </v>
  <v type="int" >        2 </v>
  <v type="int" >       24 </v>
  <v type="int" >        5 </v>
  <v type="int" >       26 </v>
  <v type="int" >        9 </v>
  <v type="int" >       20 </v>
  <v type="int" >       18 </v>
  <v type="int" >       11 </v>
  <v type="int" >       28 </v>
  <v type="int" >        4 </v>
  <v type="int" >       50 </v>
  <v type="int" >       21 </v>
  <v type="int" >       13 </v>
  <v type="int" >       23 </v>
  <v type="int" >       27 </v>
  <v type="int" >       12 </v>
  <v type="int" >       47 </v>
  <v type="int" >        6 </v>
  <v type="int" >       25 </v>
  <v type="int" >       14 </v>
  <v type="int" >       29 </v>
  <v type="int" >       22 </v>
  <v type="int" >        7 </v>
  <v type="int" >       51 </v>
  <v type="int" >       39 </v>
  <v type="int" >       40 </v>
  <v type="int" >       48 </v>
  <v type="int" >       35 </v>
  <v type="int" >       30 </v>
  <v type="int" >       42 </v>
  <v type="int" >       31 </v>
  <v type="int" >       15 </v>
  <v type="int" >       43 </v>
  <v type="int" >       32 </v>
  <v type="int" >       52 </v>
  <v type="int" >       49 </v>
  <v type="int" >       41 </v>
  <v type="int" >       36 </v>
  <v type="int" >       44 </v>
  <v type="int" >       33 </v>
  <v type="int" >       56 </v>
  <v type="int" >       55 </v>
  <v type="int" >       37 </v>
  <v type="int" >       34 </v>
  <v type="int" >       53 </v>
  <v type="int" >       45 </v>
  <v type="int" >       38 </v>
  <v type="int" >       54 </v>
  <v type="int" >       46 </v>
 </varray>
 <kpoints>
  <generation param="Monkhorst-Pack">
   <v type="int" name="divisions">       1        1        1 </v>
   <v name="usershift">      0.00000000       0.00000000       0.00000000 </v>
   <v name="genvec1">      1.00000000       0.00000000       0.00000000 </v>
   <v name="genvec2">      0.00000000       1.00000000       0.00000000 </v>
   <v name="genvec3">      0.00000000       0.00000000       1.00000000 </v>
   <v name="shift">      0.00000000       0.00000000       0.00000000 </v>
  </generation>
  <varray name="kpointlist" >
   <v>       0.00000000       0.00000000       0.00000000 </v>
  </varray>
  <varray name="weights" >
   <v>       1.00000000 </v>
  </varray>
 </kpoints>
 <parameters>
  <separator name="general" >
   <i type="string" name="SYSTEM">1x1_001_aAl2O3</i>
   <i type="logical" name="LCOMPAT"> F  </i>
  </separator>
  <separator name="electronic" >
   <i type="string" name="PREC">normal</i>
   <i name="ENMAX">    400.00000000</i>
   <i name="ENAUG">    544.56500000</i>
   <i name="EDIFF">      0.00000100</i>
   <i type="int" name="IALGO">    68</i>
   <i type="int" name="IWAVPR">    11</i>
   <i type="int" name="NBANDS">   380</i>
   <i name="NELECT">    556.00000000</i>
   <i type="int" name="TURBO">     0</i>
   <i type="int" name="IRESTART">     0</i>
   <i type="int" name="NREBOOT">     0</i>
   <i type="int" name="NMIN">     0</i>
   <i name="EREF">      0.00000000</i>
   <separator name="electronic smearing" >
    <i type="int" name="ISMEAR">     0</i>
    <i name="SIGMA">      0.10000000</i>
    <i name="KSPACING">      0.50000000</i>
    <i type="logical" name="KGAMMA"> T  </i>
   </separator>
   <separator name="electronic projectors" >
    <i type="logical" name="LREAL"> T  </i>
    <v name="ROPT">     -0.00050000     -0.00050000</v>
    <i type="int" name="LMAXPAW">  -100</i>
    <i type="int" name="LMAXMIX">     2</i>
    <i type="logical" name="NLSPLINE"> F  </i>
   </separator>
   <separator name="electronic startup" >
    <i type="int" name="ISTART">     0</i>
    <i type="int" name="ICHARG">     2</i>
    <i type="int" name="INIWAV">     1</i>
   </separator>
   <separator name="electronic spin" >
    <i type="int" name="ISPIN">     2</i>
    <i type="logical" name="LNONCOLLINEAR"> F  </i>
    <v name="MAGMOM">      1.00000000      1.00000000      1.00000000      1.00000000      1.00000000      1.00000000      1.00000000      1.00000000      1.00000000      1.00000000      1.00000000      1.00000000      1.00000000      1.00000000      1.00000000      1.00000000      1.00000000      1.00000000      1.00000000      1.00000000
      1.00000000      1.00000000      1.00000000      1.00000000      1.00000000      1.00000000      1.00000000      1.00000000      1.00000000      1.00000000      1.00000000      1.00000000      1.00000000      1.00000000      1.00000000      1.00000000      1.00000000      1.00000000      1.00000000      1.00000000
      1.00000000      1.00000000      1.00000000      1.00000000      1.00000000      1.00000000      1.00000000      1.00000000      1.00000000      1.00000000      1.00000000      1.00000000      1.00000000      1.00000000      1.00000000      1.00000000</v>
    <i name="NUPDOWN">     -1.00000000</i>
    <i type="logical" name="LSORBIT"> F  </i>
    <v name="SAXIS">      0.00000000      0.00000000      1.00000000</v>
    <i type="logical" name="LSPIRAL"> F  </i>
    <v name="QSPIRAL">      0.00000000      0.00000000      0.00000000</v>
    <i type="logical" name="LZEROZ"> F  </i>
   </separator>
   <separator name="electronic exchange-correlation" >
    <i type="logical" name="LASPH"> F  </i>
    <i type="logical" name="LMETAGGA"> F  </i>
   </separator>
   <separator name="electronic convergence" >
    <i type="int" name="NELM">   100</i>
    <i type="int" name="NELMDL">    -5</i>
    <i type="int" name="NELMIN">     2</i>
    <i name="ENINI">    400.00000000</i>
    <separator name="electronic convergence detail" >
     <i type="logical" name="LDIAG"> T  </i>
     <i type="logical" name="LSUBROT"> F  </i>
     <i name="WEIMIN">      0.00100000</i>
     <i name="EBREAK">      0.00000000</i>
     <i name="DEPER">      0.30000000</i>
     <i type="int" name="NRMM">     4</i>
     <i name="TIME">      0.40000000</i>
    </separator>
   </separator>
   <separator name="electronic mixer" >
    <i name="AMIX">      0.40000000</i>
    <i name="BMIX">      1.00000000</i>
    <i name="AMIN">      0.10000000</i>
    <i name="AMIX_MAG">      1.60000000</i>
    <i name="BMIX_MAG">      1.00000000</i>
    <separator name="electronic mixer details" >
     <i type="int" name="IMIX">     4</i>
     <i type="logical" name="MIXFIRST"> F  </i>
     <i type="int" name="MAXMIX">   -45</i>
     <i name="WC">    100.00000000</i>
     <i type="int" name="INIMIX">     1</i>
     <i type="int" name="MIXPRE">     1</i>
     <i type="int" name="MREMOVE">     5</i>
    </separator>
   </separator>
   <separator name="electronic dipolcorrection" >
    <i type="logical" name="LDIPOL"> F  </i>
    <i type="logical" name="LMONO"> F  </i>
    <i type="int" name="IDIPOL">     0</i>
    <i name="EPSILON">      1.00000000</i>
    <v name="DIPOL">   -100.00000000   -100.00000000   -100.00000000</v>
    <i name="EFIELD">      0.00000000</i>
   </separator>
  </separator>
  <separator name="grids" >
   <i type="int" name="NGX">    98</i>
   <i type="int" name="NGY">    98</i>
   <i type="int" name="NGZ">    98</i>
   <i type="int" name="NGXF">   196</i>
   <i type="int" name="NGYF">   196</i>
   <i type="int" name="NGZF">   196</i>
   <i type="logical" name="ADDGRID"> F  </i>
  </separator>
  <separator name="ionic" >
   <i type="int" name="NSW">   100</i>
   <i type="int" name="IBRION">     2</i>
   <i type="int" name="MDALGO">     0</i>
   <i type="int" name="ISIF">     0</i>
   <i name="PSTRESS">      0.00000000</i>
   <i name="EDIFFG">     -0.03000000</i>
   <i type="int" name="NFREE">     5</i>
   <i name="POTIM">      0.20000000</i>
   <i name="SMASS">     -3.00000000</i>
   <i name="SCALEE">      1.00000000</i>
  </separator>
  <separator name="ionic md" >
   <i name="TEBEG">      0.00010000</i>
   <i name="TEEND">      0.00010000</i>
   <i type="int" name="NBLOCK">     1</i>
   <i type="int" name="KBLOCK">   100</i>
   <i type="int" name="NPACO">   256</i>
   <i name="APACO">     16.00000000</i>
  </separator>
  <separator name="symmetry" >
   <i type="int" name="ISYM">     2</i>
   <i name="SYMPREC">      0.00000100</i>
  </separator>
  <separator name="dos" >
   <i type="int" name="LORBIT">     0</i>
   <v name="RWIGS">     -1.00000000     -1.00000000</v>
   <i type="int" name="NEDOS">   301</i>
   <i name="EMIN">     10.00000000</i>
   <i name="EMAX">    -10.00000000</i>
   <i name="EFERMI">      0.00000000</i>
  </separator>
  <separator name="writing" >
   <i type="int" name="NWRITE">     1</i>
   <i type="logical" name="LWAVE"> F  </i>
   <i type="logical" name="LDOWNSAMPLE"> F  </i>
   <i type="logical" name="LCHARG"> F  </i>
   <i type="logical" name="LPARD"> F  </i>
   <i type="logical" name="LVTOT"> F  </i>
   <i type="logical" name="LVHAR"> F  </i>
   <i type="logical" name="LELF"> F  </i>
   <i type="logical" name="LOPTICS"> F  </i>
   <v name="STM">      0.00000000      0.00000000      0.00000000      0.00000000      0.00000000      0.00000000      0.00000000</v>
  </separator>
  <separator name="performance" >
   <i type="int" name="NPAR">    20</i>
   <i type="int" name="NSIM">     4</i>
   <i type="int" name="NBLK">    -1</i>
   <i type="logical" name="LPLANE"> T  </i>
   <i type="logical" name="LSCALAPACK"> T  </i>
   <i type="logical" name="LSCAAWARE"> F  </i>
   <i type="logical" name="LSCALU"> F  </i>
   <i type="logical" name="LASYNC"> F  </i>
   <i type="logical" name="LORBITALREAL"> F  </i>
  </separator>
  <separator name="miscellaneous" >
   <i type="int" name="IDIOT">     3</i>
   <i type="int" name="ISPECIAL">     0</i>
   <i type="logical" name="LMUSIC"> F  </i>
   <v name="POMASS">     58.69000000     32.06600000</v>
   <v name="DARWINR">      0.00000000      0.00000000</v>
   <v name="DARWINV">      1.00000000      1.00000000</v>
   <i type="logical" name="LCORR"> T  </i>
  </separator>
  <i type="logical" name="GGA_COMPAT"> T  </i>
  <i type="logical" name="LBERRY"> F  </i>
  <i type="int" name="ICORELEVEL">     0</i>
  <i type="logical" name="LDAU"> F  </i>
  <i type="int" name="I_CONSTRAINED_M">     0</i>
  <separator name="electronic exchange-correlation" >
   <i type="string" name="GGA">--</i>
   <i type="int" name="VOSKOWN">     0</i>
   <i type="logical" name="LHFCALC"> F  </i>
   <i type="string" name="PRECFOCK"></i>
   <i type="logical" name="LSYMGRAD"> F  </i>
   <i type="logical" name="LHFONE"> F  </i>
   <i type="logical" name="LRHFCALC"> F  </i>
   <i type="logical" name="LTHOMAS"> F  </i>
   <i type="logical" name="LMODELHF"> F  </i>
   <i name="ENCUT4O">     -1.00000000</i>
   <i type="int" name="EXXOEP">     0</i>
   <i type="int" name="FOURORBIT">     0</i>
   <i name="AEXX">      0.00000000</i>
   <i name="HFALPHA">      0.00000000</i>
   <i name="MCALPHA">      0.00000000</i>
   <i name="ALDAX">      1.00000000</i>
   <i name="AGGAX">      1.00000000</i>
   <i name="ALDAC">      1.00000000</i>
   <i name="AGGAC">      1.00000000</i>
   <i type="int" name="NKREDX">     1</i>
   <i type="int" name="NKREDY">     1</i>
   <i type="int" name="NKREDZ">     1</i>
   <i type="logical" name="SHIFTRED"> F  </i>
   <i type="logical" name="ODDONLY"> F  </i>
   <i type="logical" name="EVENONLY"> F  </i>
   <i type="int" name="LMAXFOCK">     0</i>
   <i type="int" name="NMAXFOCKAE">     0</i>
   <i type="logical" name="LFOCKAEDFT"> F  </i>
   <i name="HFSCREEN">      0.00000000</i>
   <i name="HFSCREENC">      0.00000000</i>
   <i type="int" name="NBANDSGWLOW">     0</i>
  </separator>
  <separator name="vdW DFT" >
   <i type="logical" name="LUSE_VDW"> F  </i>
   <i name="Zab_VDW">     -0.84910000</i>
   <i name="PARAM1">      0.12340000</i>
   <i name="PARAM2">      1.00000000</i>
   <i name="PARAM3">      0.00000000</i>
  </separator>
  <separator name="model GW" >
   <i type="int" name="MODEL_GW">     0</i>
   <i name="MODEL_EPS0">     85.71428571</i>
   <i name="MODEL_ALPHA">      1.00000000</i>
  </separator>
  <separator name="linear response parameters" >
   <i type="logical" name="LEPSILON"> F  </i>
   <i type="logical" name="LRPA"> F  </i>
   <i type="logical" name="LNABLA"> F  </i>
   <i type="logical" name="LVEL"> F  </i>
   <i type="int" name="KINTER">     0</i>
   <i name="CSHIFT">      0.10000000</i>
   <i name="OMEGAMAX">     -1.00000000</i>
   <i name="DEG_THRESHOLD">      0.00200000</i>
   <i name="RTIME">     -0.10000000</i>
   <i name="WPLASMAI">      0.00000000</i>
   <v name="DFIELD">      0.00000000      0.00000000      0.00000000</v>
   <v name="WPLASMA">      0.00000000      0.00000000      0.00000000      0.00000000      0.00000000      0.00000000      0.00000000      0.00000000      0.00000000</v>
  </separator>
  <separator name="orbital magnetization" >
   <i type="logical" name="NUCIND"> F  </i>
   <v name="MAGPOS">      0.00000000      0.00000000      0.00000000</v>
   <i type="logical" name="LNICSALL"> T  </i>
   <i type="logical" name="ORBITALMAG"> F  </i>
   <i type="logical" name="LMAGBLOCH"> F  </i>
   <i type="logical" name="LCHIMAG"> F  </i>
   <i type="logical" name="LGAUGE"> T  </i>
   <i type="int" name="MAGATOM">     0</i>
   <v name="MAGDIPOL">      0.00000000      0.00000000      0.00000000</v>
   <v name="AVECCONST">      0.00000000      0.00000000      0.00000000</v>
  </separator>
  <separator name="response functions" >
   <i type="logical" name="LADDER"> F  </i>
   <i type="logical" name="LRPAFORCE"> F  </i>
   <i type="logical" name="LFXC"> F  </i>
   <i type="logical" name="LHARTREE"> T  </i>
   <i type="int" name="IBSE">     0</i>
   <v type="int" name="KPOINT">    -1     0     0     0</v>
   <i type="logical" name="LTCTE"> F  </i>
   <i type="logical" name="LTETE"> F  </i>
   <i type="logical" name="LTRIPLET"> F  </i>
   <i type="logical" name="LFXCEPS"> F  </i>
   <i type="logical" name="LFXHEG"> F  </i>
   <i type="int" name="NATURALO">     2</i>
   <i type="logical" name="L2ORDER"> F  </i>
   <i type="logical" name="LMP2LT"> F  </i>
   <i type="logical" name="LUSEW"> F  </i>
   <i name="ENCUTGW">     -2.00000000</i>
   <i name="ENCUTGWSOFT">     -2.00000000</i>
   <i name="ENCUTLF">     -1.00000000</i>
   <i type="int" name="LMAXMP2">    -1</i>
   <i name="SCISSOR">      0.00000000</i>
   <i type="int" name="NOMEGA">     0</i>
   <i type="int" name="NOMEGAR">     0</i>
   <i type="int" name="NBANDSGW">    -1</i>
   <i type="int" name="NBANDSO">    -1</i>
   <i type="int" name="NBANDSV">    -1</i>
   <i type="int" name="NELM">   100</i>
   <i type="int" name="NELMHF">     1</i>
   <i type="int" name="DIM">     3</i>
   <i type="int" name="ANTIRES">     0</i>
   <i name="OMEGAMAX">    -30.00000000</i>
   <i name="OMEGAMIN">    -30.00000000</i>
   <i name="OMEGATL">   -200.00000000</i>
   <i type="int" name="OMEGAGRID">   140</i>
   <i name="CSHIFT">     -0.10000000</i>
   <i type="logical" name="SELFENERGY"> F  </i>
   <i type="logical" name="LSPECTRAL"> F  </i>
   <i type="logical" name="LSPECTRALGW"> F  </i>
   <i type="logical" name="LSINGLES"> F  </i>
   <i type="logical" name="LFERMIGW"> F  </i>
   <i type="logical" name="ODDONLYGW"> F  </i>
   <i type="logical" name="EVENONLYGW"> F  </i>
   <i type="int" name="NKREDLFX">     1</i>
   <i type="int" name="NKREDLFY">     1</i>
   <i type="int" name="NKREDLFZ">     1</i>
   <i type="int" name="MAXMEM">  2800</i>
   <i type="int" name="TELESCOPE">     0</i>
   <i type="int" name="TAUPAR">     1</i>
   <i type="int" name="OMEGAPAR">    -1</i>
   <i name="LAMBDA">      1.00000000</i>
  </separator>
  <separator name="External order field" >
   <i name="OFIELD_KAPPA">      0.00000000</i>
   <v name="OFIELD_K">      0.00000000      0.00000000      0.00000000</v>
   <i name="OFIELD_Q6_NEAR">      0.00000000</i>
   <i name="OFIELD_Q6_FAR">      0.00000000</i>
   <i name="OFIELD_A">      0.00000000</i>
  </separator>
 </parameters>
 <atominfo>
  <atoms>      56 </atoms>
  <types>       2 </types>
  <array name="atoms" >
   <dimension dim="1">ion</dimension>
   <field type="string">element</field>
   <field type="int">atomtype</field>
   <set>
    <rc><c>Ni</c><c>   1</c></rc>
    <rc><c>Ni</c><c>   1</c></rc>
    <rc><c>Ni</c><c>   1</c></rc>
    <rc><c>Ni</c><c>   1</c></rc>
    <rc><c>Ni</c><c>   1</c></rc>
    <rc><c>Ni</c><c>   1</c></rc>
    <rc><c>Ni</c><c>   1</c></rc>
    <rc><c>Ni</c><c>   1</c></rc>
    <rc><c>Ni</c><c>   1</c></rc>
    <rc><c>Ni</c><c>   1</c></rc>
    <rc><c>Ni</c><c>   1</c></rc>
    <rc><c>Ni</c><c>   1</c></rc>
    <rc><c>Ni</c><c>   1</c></rc>
    <rc><c>Ni</c><c>   1</c></rc>
    <rc><c>Ni</c><c>   1</c></rc>
    <rc><c>Ni</c><c>   1</c></rc>
    <rc><c>Ni</c><c>   1</c></rc>
    <rc><c>Ni</c><c>   1</c></rc>
    <rc><c>Ni</c><c>   1</c></rc>
    <rc><c>Ni</c><c>   1</c></rc>
    <rc><c>Ni</c><c>   1</c></rc>
    <rc><c>Ni</c><c>   1</c></rc>
    <rc><c>Ni</c><c>   1</c></rc>
    <rc><c>Ni</c><c>   1</c></rc>
    <rc><c>Ni</c><c>   1</c></rc>
    <rc><c>Ni</c><c>   1</c></rc>
    <rc><c>Ni</c><c>   1</c></rc>
    <rc><c>Ni</c><c>   1</c></rc>
    <rc><c>Ni</c><c>   1</c></rc>
    <rc><c>Ni</c><c>   1</c></rc>
    <rc><c>Ni</c><c>   1</c></rc>
    <rc><c>Ni</c><c>   1</c></rc>
    <rc><c>Ni</c><c>   1</c></rc>
    <rc><c>Ni</c><c>   1</c></rc>
    <rc><c>Ni</c><c>   1</c></rc>
    <rc><c>Ni</c><c>   1</c></rc>
    <rc><c>Ni</c><c>   1</c></rc>
    <rc><c>Ni</c><c>   1</c></rc>
    <rc><c>Ni</c><c>   1</c></rc>
    <rc><c>Ni</c><c>   1</c></rc>
    <rc><c>Ni</c><c>   1</c></rc>
    <rc><c>Ni</c><c>   1</c></rc>
    <rc><c>Ni</c><c>   1</c></rc>
    <rc><c>Ni</c><c>   1</c></rc>
    <rc><c>Ni</c><c>   1</c></rc>
    <rc><c>Ni</c><c>   1</c></rc>
    <rc><c>Ni</c><c>   1</c></rc>
    <rc><c>Ni</c><c>   1</c></rc>
    <rc><c>Ni</c><c>   1</c></rc>
    <rc><c>Ni</c><c>   1</c></rc>
    <rc><c>Ni</c><c>   1</c></rc>
    <rc><c>Ni</c><c>   1</c></rc>
    <rc><c>Ni</c><c>   1</c></rc>
    <rc><c>Ni</c><c>   1</c></rc>
    <rc><c>Ni</c><c>   1</c></rc>
    <rc><c>S </c><c>   2</c></rc>
   </set>
  </array>
  <array name="atomtypes" >
   <dimension dim="1">type</dimension>
   <field type="int">atomspertype</field>
   <field type="string">element</field>
   <field>mass</field>
   <field>valence</field>
   <field type="string">pseudopotential</field>
   <set>
    <rc><c>  55</c><c>Ni</c><c>     58.69000000</c><c>     10.00000000</c><c> PAW_PBE Ni 06Sep2000                   </c></rc>
    <rc><c>   1</c><c>S </c><c>     32.06600000</c><c>      6.00000000</c><c>  PAW_PBE S 17Jan2003                   </c></rc>
   </set>
  </array>
 </atominfo>
 <structure name="initialpos" >
  <crystal>
   <varray name="basis" >
    <v>      20.00000000       0.00000000       0.00000000 </v>
    <v>       0.00000000      20.00000000       0.00000000 </v>
    <v>       0.00000000       0.00000000      20.00000000 </v>
   </varray>
   <i name="volume">   8000.00000000 </i>
   <varray name="rec_basis" >
    <v>       0.05000000       0.00000000       0.00000000 </v>
    <v>       0.00000000       0.05000000       0.00000000 </v>
    <v>       0.00000000       0.00000000       0.05000000 </v>
   </varray>
  </crystal>
  <varray name="positions" >
   <v>       0.34999999       0.59609997       0.41023001 </v>
   <v>       0.45111999       0.66298002       0.37739000 </v>
   <v>       0.41144001       0.66333997       0.49592999 </v>
   <v>       0.51289999       0.72356999       0.46397001 </v>
   <v>       0.51455998       0.60857999       0.46454999 </v>
   <v>       0.57696998       0.66512001       0.37803999 </v>
   <v>       0.61531001       0.66529000       0.49739999 </v>
   <v>       0.31621998       0.59328002       0.52759999 </v>
   <v>       0.35165000       0.48844001       0.58240998 </v>
   <v>       0.41481999       0.54310000       0.49675000 </v>
   <v>       0.41226000       0.59715998       0.60433000 </v>
   <v>       0.51300001       0.66443002       0.57078999 </v>
   <v>       0.51393002       0.54326999       0.57043999 </v>
   <v>       0.61514002       0.54430997       0.49803001 </v>
   <v>       0.61504000       0.59938997       0.60447001 </v>
   <v>       0.39269999       0.59319001       0.29561001 </v>
   <v>       0.35174000       0.48896000       0.34492999 </v>
   <v>       0.45374000       0.49070001       0.27023000 </v>
   <v>       0.45361000       0.54241002       0.37911001 </v>
   <v>       0.51520002       0.59798002       0.29126000 </v>
   <v>       0.51659000       0.43858001       0.35894001 </v>
   <v>       0.57914001       0.49233002       0.27079999 </v>
   <v>       0.57756001       0.54448003       0.37959999 </v>
   <v>       0.31229001       0.48839000       0.46421999 </v>
   <v>       0.35187000       0.38130999       0.51739001 </v>
   <v>       0.41624001       0.43660000       0.43307000 </v>
   <v>       0.45506999       0.43731001       0.55010003 </v>
   <v>       0.51587999       0.49059999       0.46496999 </v>
   <v>       0.51804000       0.37242001       0.46355999 </v>
   <v>       0.61691999       0.43946001       0.43193999 </v>
   <v>       0.57789999       0.43765000       0.55014002 </v>
   <v>       0.67907000       0.59966999       0.41204000 </v>
   <v>       0.71208000       0.59684998       0.52977002 </v>
   <v>       0.68033999       0.49168000       0.58374000 </v>
   <v>       0.63770002       0.59675997       0.29679000 </v>
   <v>       0.68107003       0.49320999       0.34472001 </v>
   <v>       0.71951002       0.49331000       0.46399999 </v>
   <v>       0.68197000       0.38521001       0.51692998 </v>
   <v>       0.45265999       0.49094000       0.66323000 </v>
   <v>       0.51353002       0.59705001       0.67210001 </v>
   <v>       0.57927000       0.49200001       0.65692002 </v>
   <v>       0.39315000       0.38383001       0.63277000 </v>
   <v>       0.45515999       0.31744999       0.54939002 </v>
   <v>       0.51909000       0.38150001       0.64209998 </v>
   <v>       0.58157003       0.31762001       0.55027002 </v>
   <v>       0.64121002       0.38648999       0.63142002 </v>
   <v>       0.41586000       0.38284001       0.32444999 </v>
   <v>       0.51719999       0.38745001       0.25582999 </v>
   <v>       0.61895001       0.38558999       0.32365999 </v>
   <v>       0.31948999       0.38475001       0.39871001 </v>
   <v>       0.41635999       0.31641999       0.43090999 </v>
   <v>       0.51840001       0.31786001       0.35631999 </v>
   <v>       0.62011999       0.31862000       0.42938000 </v>
   <v>       0.71500999       0.38927999       0.39916000 </v>
   <v>       0.51953000       0.25764999       0.46280000 </v>
   <v>       0.44926000       0.40059999       0.72285998 </v>
  </varray>
 </structure>
 <calculation>
  <scstep>
   <time name="dav">   23.06   23.14</time>
   <time name="total">   24.05   24.13</time>
   <energy>
    <i name="alphaZ">    387.12086559 </i>
    <i name="ewald"> 180958.51048671 </i>
    <i name="hartreedc">-235738.49427587 </i>
    <i name="XCdc">   1723.71096490 </i>
    <i name="pawpsdc">  47977.39182462 </i>
    <i name="pawaedc"> -51648.67119642 </i>
    <i name="eentropy">     -0.39815227 </i>
    <i name="bandstr">   -384.69460540 </i>
    <i name="atom">  59560.90262231 </i>
    <i name="e_fr_energy">   2835.37853418 </i>
    <i name="e_wo_entrp">   2835.77668646 </i>
    <i name="e_0_energy">   2835.57761032 </i>
   </energy>
  </scstep>
  <scstep>
   <time name="dav">   24.65   24.73</time>
   <time name="total">   24.65   24.74</time>
   <energy>
    <i name="e_fr_energy">   -143.08646218 </i>
    <i name="e_wo_entrp">   -142.49093208 </i>
    <i name="e_0_energy">   -142.78869713 </i>
   </energy>
  </scstep>
  <scstep>
   <time name="dav">   26.28   26.34</time>
   <time name="total">   26.28   26.34</time>
   <energy>
    <i name="e_fr_energy">   -303.34741042 </i>
    <i name="e_wo_entrp">   -302.85803087 </i>
    <i name="e_0_energy">   -303.10272064 </i>
   </energy>
  </scstep>
  <scstep>
   <time name="dav">   24.94   25.00</time>
   <time name="total">   24.94   25.00</time>
   <energy>
    <i name="e_fr_energy">   -307.09788140 </i>
    <i name="e_wo_entrp">   -306.60438880 </i>
    <i name="e_0_energy">   -306.85113510 </i>
   </energy>
  </scstep>
  <scstep>
   <time name="dav">   25.37   25.43</time>
   <time name="total">   26.49   26.56</time>
   <energy>
    <i name="e_fr_energy">   -307.18214615 </i>
    <i name="e_wo_entrp">   -306.68846838 </i>
    <i name="e_0_energy">   -306.93530726 </i>
   </energy>
  </scstep>
  <scstep>
   <time name="diag">    4.86    4.87</time>
   <time name="diis">    9.41    9.43</time>
   <time name="orth">    1.66    1.66</time>
   <time name="total">   18.00   18.04</time>
   <energy>
    <i name="e_fr_energy">   -389.91335435 </i>
    <i name="e_wo_entrp">   -389.71627404 </i>
    <i name="e_0_energy">   -389.81481419 </i>
   </energy>
  </scstep>
  <scstep>
   <time name="diag">    4.95    4.96</time>
   <time name="diis">    9.49    9.51</time>
   <time name="orth">    1.66    1.66</time>
   <time name="total">   18.18   18.22</time>
   <energy>
    <i name="e_fr_energy">   -330.31901812 </i>
    <i name="e_wo_entrp">   -329.57359144 </i>
    <i name="e_0_energy">   -329.94630478 </i>
   </energy>
  </scstep>
  <scstep>
   <time name="diag">    4.88    4.89</time>
   <time name="diis">    9.45    9.47</time>
   <time name="orth">    1.66    1.66</time>
   <time name="total">   18.08   18.12</time>
   <energy>
    <i name="e_fr_energy">   -293.83581342 </i>
    <i name="e_wo_entrp">   -293.33530697 </i>
    <i name="e_0_energy">   -293.58556019 </i>
   </energy>
  </scstep>
  <scstep>
   <time name="diag">    4.86    4.87</time>
   <time name="diis">    9.51    9.53</time>
   <time name="orth">    1.66    1.66</time>
   <time name="total">   18.11   18.15</time>
   <energy>
    <i name="e_fr_energy">   -266.48309802 </i>
    <i name="e_wo_entrp">   -265.75880220 </i>
    <i name="e_0_energy">   -266.12095011 </i>
   </energy>
  </scstep>
  <scstep>
   <time name="diag">    4.86    4.87</time>
   <time name="diis">    9.51    9.54</time>
   <time name="orth">    1.66    1.66</time>
   <time name="total">   18.11   18.15</time>
   <energy>
    <i name="e_fr_energy">   -266.68873720 </i>
    <i name="e_wo_entrp">   -265.98774643 </i>
    <i name="e_0_energy">   -266.33824182 </i>
   </energy>
  </scstep>
  <scstep>
   <time name="diag">    4.86    4.87</time>
   <time name="diis">    9.47    9.49</time>
   <time name="orth">    1.66    1.66</time>
   <time name="total">   18.07   18.11</time>
   <energy>
    <i name="e_fr_energy">   -260.52933305 </i>
    <i name="e_wo_entrp">   -259.95404422 </i>
    <i name="e_0_energy">   -260.24168864 </i>
   </energy>
  </scstep>
  <scstep>
   <time name="diag">    4.86    4.87</time>
   <time name="diis">    9.43    9.46</time>
   <time name="orth">    1.66    1.66</time>
   <time name="total">   18.04   18.08</time>
   <energy>
    <i name="e_fr_energy">   -258.94900770 </i>
    <i name="e_wo_entrp">   -258.37193329 </i>
    <i name="e_0_energy">   -258.66047049 </i>
   </energy>
  </scstep>
  <scstep>
   <time name="diag">    4.89    4.90</time>
   <time name="diis">    9.45    9.47</time>
   <time name="orth">    1.66    1.66</time>
   <time name="total">   18.08   18.12</time>
   <energy>
    <i name="e_fr_energy">   -256.90324250 </i>
    <i name="e_wo_entrp">   -256.35934816 </i>
    <i name="e_0_energy">   -256.63129533 </i>
   </energy>
  </scstep>
  <scstep>
   <time name="diag">    4.86    4.87</time>
   <time name="diis">    9.47    9.49</time>
   <time name="orth">    1.66    1.67</time>
   <time name="total">   18.08   18.12</time>
   <energy>
    <i name="e_fr_energy">   -255.86934740 </i>
    <i name="e_wo_entrp">   -255.28785177 </i>
    <i name="e_0_energy">   -255.57859959 </i>
   </energy>
  </scstep>
  <scstep>
   <time name="diag">    4.87    4.88</time>
   <time name="diis">    9.46    9.48</time>
   <time name="orth">    1.66    1.66</time>
   <time name="total">   18.08   18.12</time>
   <energy>
    <i name="e_fr_energy">   -254.55843543 </i>
    <i name="e_wo_entrp">   -253.91821903 </i>
    <i name="e_0_energy">   -254.23832723 </i>
   </energy>
  </scstep>
  <scstep>
   <time name="diag">    4.85    4.86</time>
   <time name="diis">    9.47    9.49</time>
   <time name="orth">    1.66    1.66</time>
   <time name="total">   18.08   18.12</time>
   <energy>
    <i name="e_fr_energy">   -254.15319791 </i>
    <i name="e_wo_entrp">   -253.48727855 </i>
    <i name="e_0_energy">   -253.82023823 </i>
   </energy>
  </scstep>
  <scstep>
   <time name="diag">    4.85    4.86</time>
   <time name="diis">    9.43    9.45</time>
   <time name="orth">    1.66    1.66</time>
   <time name="total">   18.04   18.09</time>
   <energy>
    <i name="e_fr_energy">   -255.03600235 </i>
    <i name="e_wo_entrp">   -254.32554189 </i>
    <i name="e_0_energy">   -254.68077212 </i>
   </energy>
  </scstep>
  <scstep>
   <time name="diag">    4.88    4.89</time>
   <time name="diis">    9.42    9.45</time>
   <time name="orth">    1.66    1.66</time>
   <time name="total">   18.07   18.11</time>
   <energy>
    <i name="e_fr_energy">   -254.36256831 </i>
    <i name="e_wo_entrp">   -253.67714622 </i>
    <i name="e_0_energy">   -254.01985726 </i>
   </energy>
  </scstep>
  <scstep>
   <time name="diag">    4.85    4.86</time>
   <time name="diis">    9.46    9.49</time>
   <time name="orth">    1.66    1.66</time>
   <time name="total">   18.08   18.12</time>
   <energy>
    <i name="e_fr_energy">   -254.16745017 </i>
    <i name="e_wo_entrp">   -253.47885751 </i>
    <i name="e_0_energy">   -253.82315384 </i>
   </energy>
  </scstep>
  <scstep>
   <time name="diag">    4.85    4.86</time>
   <time name="diis">    9.48    9.50</time>
   <time name="orth">    1.66    1.66</time>
   <time name="total">   18.10   18.15</time>
   <energy>
    <i name="e_fr_energy">   -255.14768643 </i>
    <i name="e_wo_entrp">   -254.48320915 </i>
    <i name="e_0_energy">   -254.81544779 </i>
   </energy>
  </scstep>
  <scstep>
   <time name="diag">    4.84    4.85</time>
   <time name="diis">    9.45    9.48</time>
   <time name="orth">    1.66    1.67</time>
   <time name="total">   18.07   18.11</time>
   <energy>
    <i name="e_fr_energy">   -255.48417994 </i>
    <i name="e_wo_entrp">   -254.82209162 </i>
    <i name="e_0_energy">   -255.15313578 </i>
   </energy>
  </scstep>
  <scstep>
   <time name="diag">    4.82    4.84</time>
   <time name="diis">    9.45    9.48</time>
   <time name="orth">    1.66    1.66</time>
   <time name="total">   18.06   18.10</time>
   <energy>
    <i name="e_fr_energy">   -255.51691543 </i>
    <i name="e_wo_entrp">   -254.83060402 </i>
    <i name="e_0_energy">   -255.17375973 </i>
   </energy>
  </scstep>
  <scstep>
   <time name="diag">    4.86    4.87</time>
   <time name="diis">    9.43    9.46</time>
   <time name="orth">    1.77    1.77</time>
   <time name="total">   18.18   18.22</time>
   <energy>
    <i name="e_fr_energy">   -255.72655772 </i>
    <i name="e_wo_entrp">   -255.03133142 </i>
    <i name="e_0_energy">   -255.37894457 </i>
   </energy>
  </scstep>
  <scstep>
   <time name="diag">    4.82    4.83</time>
   <time name="diis">    9.45    9.47</time>
   <time name="orth">    1.66    1.66</time>
   <time name="total">   18.05   18.10</time>
   <energy>
    <i name="e_fr_energy">   -256.24641494 </i>
    <i name="e_wo_entrp">   -255.53842902 </i>
    <i name="e_0_energy">   -255.89242198 </i>
   </energy>
  </scstep>
  <scstep>
   <time name="diag">    4.83    4.84</time>
   <time name="diis">    9.44    9.46</time>
   <time name="orth">    1.66    1.66</time>
   <time name="total">   18.06   18.10</time>
   <energy>
    <i name="e_fr_energy">   -256.37366961 </i>
    <i name="e_wo_entrp">   -255.65426868 </i>
    <i name="e_0_energy">   -256.01396915 </i>
   </energy>
  </scstep>
  <scstep>
   <time name="diag">    4.85    4.86</time>
   <time name="diis">    9.45    9.48</time>
   <time name="orth">    1.66    1.67</time>
   <time name="total">   18.12   18.16</time>
   <energy>
    <i name="e_fr_energy">   -256.46269469 </i>
    <i name="e_wo_entrp">   -255.73708290 </i>
    <i name="e_0_energy">   -256.09988880 </i>
   </energy>
  </scstep>
  <scstep>
   <time name="diag">    4.85    4.86</time>
   <time name="diis">    9.42    9.44</time>
   <time name="orth">    1.66    1.66</time>
   <time name="total">   18.09   18.13</time>
   <energy>
    <i name="e_fr_energy">   -256.67946121 </i>
    <i name="e_wo_entrp">   -255.96005298 </i>
    <i name="e_0_energy">   -256.31975710 </i>
   </energy>
  </scstep>
  <scstep>
   <time name="diag">    4.86    4.87</time>
   <time name="diis">    9.44    9.47</time>
   <time name="orth">    1.66    1.66</time>
   <time name="total">   18.12   18.17</time>
   <energy>
    <i name="e_fr_energy">   -256.80711666 </i>
    <i name="e_wo_entrp">   -256.08456951 </i>
    <i name="e_0_energy">   -256.44584308 </i>
   </energy>
  </scstep>
  <scstep>
   <time name="diag">    4.86    4.87</time>
   <time name="diis">    9.43    9.45</time>
   <time name="orth">    1.66    1.66</time>
   <time name="total">   18.11   18.15</time>
   <energy>
    <i name="e_fr_energy">   -257.30295948 </i>
    <i name="e_wo_entrp">   -256.58183778 </i>
    <i name="e_0_energy">   -256.94239863 </i>
   </energy>
  </scstep>
  <scstep>
   <time name="diag">    4.83    4.84</time>
   <time name="diis">    9.41    9.43</time>
   <time name="orth">    1.66    1.67</time>
   <time name="total">   18.07   18.11</time>
   <energy>
    <i name="e_fr_energy">   -258.00030330 </i>
    <i name="e_wo_entrp">   -257.29849129 </i>
    <i name="e_0_energy">   -257.64939729 </i>
   </energy>
  </scstep>
  <scstep>
   <time name="diag">    4.85    4.86</time>
   <time name="diis">    9.46    9.48</time>
   <time name="orth">    1.67    1.67</time>
   <time name="total">   18.14   18.19</time>
   <energy>
    <i name="e_fr_energy">   -258.38255609 </i>
    <i name="e_wo_entrp">   -257.68630891 </i>
    <i name="e_0_energy">   -258.03443250 </i>
   </energy>
  </scstep>
  <scstep>
   <time name="diag">    4.85    4.86</time>
   <time name="diis">    9.39    9.42</time>
   <time name="orth">    1.66    1.66</time>
   <time name="total">   18.07   18.11</time>
   <energy>
    <i name="e_fr_energy">   -259.18387044 </i>
    <i name="e_wo_entrp">   -258.49331938 </i>
    <i name="e_0_energy">   -258.83859491 </i>
   </energy>
  </scstep>
  <scstep>
   <time name="diag">    4.86    4.87</time>
   <time name="diis">    9.45    9.48</time>
   <time name="orth">    1.66    1.66</time>
   <time name="total">   18.16   18.20</time>
   <energy>
    <i name="e_fr_energy">   -259.38843491 </i>
    <i name="e_wo_entrp">   -258.69924573 </i>
    <i name="e_0_energy">   -259.04384032 </i>
   </energy>
  </scstep>
  <scstep>
   <time name="diag">    4.85    4.86</time>
   <time name="diis">    9.46    9.48</time>
   <time name="orth">    1.66    1.66</time>
   <time name="total">   18.14   18.18</time>
   <energy>
    <i name="e_fr_energy">   -259.81509538 </i>
    <i name="e_wo_entrp">   -259.12964669 </i>
    <i name="e_0_energy">   -259.47237103 </i>
   </energy>
  </scstep>
  <scstep>
   <time name="diag">    4.85    4.86</time>
   <time name="diis">    9.39    9.42</time>
   <time name="orth">    1.66    1.66</time>
   <time name="total">   18.08   18.12</time>
   <energy>
    <i name="e_fr_energy">   -260.38268321 </i>
    <i name="e_wo_entrp">   -259.69800659 </i>
    <i name="e_0_energy">   -260.04034490 </i>
   </energy>
  </scstep>
  <scstep>
   <time name="diag">    4.85    4.86</time>
   <time name="diis">    9.44    9.46</time>
   <time name="orth">    1.66    1.66</time>
   <time name="total">   18.15   18.20</time>
   <energy>
    <i name="e_fr_energy">   -260.55625204 </i>
    <i name="e_wo_entrp">   -259.87397473 </i>
    <i name="e_0_energy">   -260.21511339 </i>
   </energy>
  </scstep>
  <scstep>
   <time name="diag">    4.85    4.86</time>
   <time name="diis">    9.39    9.41</time>
   <time name="orth">    1.66    1.66</time>
   <time name="total">   18.10   18.15</time>
   <energy>
    <i name="e_fr_energy">   -261.01359915 </i>
    <i name="e_wo_entrp">   -260.34070158 </i>
    <i name="e_0_energy">   -260.67715036 </i>
   </energy>
  </scstep>
  <scstep>
   <time name="diag">    4.84    4.86</time>
   <time name="diis">    9.39    9.42</time>
   <time name="orth">    1.66    1.67</time>
   <time name="total">   18.12   18.16</time>
   <energy>
    <i name="e_fr_energy">   -261.20942708 </i>
    <i name="e_wo_entrp">   -260.53795079 </i>
    <i name="e_0_energy">   -260.87368893 </i>
   </energy>
  </scstep>
  <scstep>
   <time name="diag">    4.85    4.86</time>
   <time name="diis">    9.40    9.42</time>
   <time name="orth">    1.66    1.66</time>
   <time name="total">   18.13   18.17</time>
   <energy>
    <i name="e_fr_energy">   -261.42253868 </i>
    <i name="e_wo_entrp">   -260.75306440 </i>
    <i name="e_0_energy">   -261.08780154 </i>
   </energy>
  </scstep>
  <scstep>
   <time name="diag">    4.84    4.85</time>
   <time name="diis">    9.39    9.41</time>
   <time name="orth">    1.66    1.67</time>
   <time name="total">   18.12   18.16</time>
   <energy>
    <i name="e_fr_energy">   -261.86108652 </i>
    <i name="e_wo_entrp">   -261.18847683 </i>
    <i name="e_0_energy">   -261.52478167 </i>
   </energy>
  </scstep>
  <scstep>
   <time name="diag">    4.84    4.85</time>
   <time name="diis">    9.44    9.47</time>
   <time name="orth">    1.67    1.67</time>
   <time name="total">   18.16   18.21</time>
   <energy>
    <i name="e_fr_energy">   -261.96948789 </i>
    <i name="e_wo_entrp">   -261.29635196 </i>
    <i name="e_0_energy">   -261.63291992 </i>
   </energy>
  </scstep>
  <scstep>
   <time name="diag">    4.85    4.86</time>
   <time name="diis">    9.45    9.48</time>
   <time name="orth">    1.66    1.67</time>
   <time name="total">   18.20   18.24</time>
   <energy>
    <i name="e_fr_energy">   -262.20949871 </i>
    <i name="e_wo_entrp">   -261.53604939 </i>
    <i name="e_0_energy">   -261.87277405 </i>
   </energy>
  </scstep>
  <scstep>
   <time name="diag">    4.84    4.85</time>
   <time name="diis">    9.46    9.49</time>
   <time name="orth">    1.66    1.67</time>
   <time name="total">   18.21   18.25</time>
   <energy>
    <i name="e_fr_energy">   -262.26122368 </i>
    <i name="e_wo_entrp">   -261.58731700 </i>
    <i name="e_0_energy">   -261.92427034 </i>
   </energy>
  </scstep>
  <scstep>
   <time name="diag">    4.85    4.86</time>
   <time name="diis">    9.41    9.44</time>
   <time name="orth">    1.66    1.66</time>
   <time name="total">   18.17   18.21</time>
   <energy>
    <i name="e_fr_energy">   -262.37182726 </i>
    <i name="e_wo_entrp">   -261.69794019 </i>
    <i name="e_0_energy">   -262.03488373 </i>
   </energy>
  </scstep>
  <scstep>
   <time name="diag">    4.84    4.85</time>
   <time name="diis">    9.40    9.43</time>
   <time name="orth">    1.66    1.66</time>
   <time name="total">   18.16   18.20</time>
   <energy>
    <i name="e_fr_energy">   -262.42256604 </i>
    <i name="e_wo_entrp">   -261.74961231 </i>
    <i name="e_0_energy">   -262.08608917 </i>
   </energy>
  </scstep>
  <scstep>
   <time name="diag">    4.84    4.86</time>
   <time name="diis">    9.45    9.47</time>
   <time name="orth">    1.66    1.67</time>
   <time name="total">   18.23   18.27</time>
   <energy>
    <i name="e_fr_energy">   -262.45469436 </i>
    <i name="e_wo_entrp">   -261.78153609 </i>
    <i name="e_0_energy">   -262.11811522 </i>
   </energy>
  </scstep>
  <scstep>
   <time name="diag">    4.84    4.85</time>
   <time name="diis">    9.42    9.45</time>
   <time name="orth">    1.68    1.68</time>
   <time name="total">   18.23   18.28</time>
   <energy>
    <i name="e_fr_energy">   -262.51740811 </i>
    <i name="e_wo_entrp">   -261.84395396 </i>
    <i name="e_0_energy">   -262.18068103 </i>
   </energy>
  </scstep>
  <scstep>
   <time name="diag">    4.84    4.85</time>
   <time name="diis">    9.41    9.43</time>
   <time name="orth">    1.66    1.66</time>
   <time name="total">   18.21   18.26</time>
   <energy>
    <i name="e_fr_energy">   -262.52818954 </i>
    <i name="e_wo_entrp">   -261.85441582 </i>
    <i name="e_0_energy">   -262.19130268 </i>
   </energy>
  </scstep>
  <scstep>
   <time name="diag">    4.84    4.85</time>
   <time name="diis">    9.45    9.47</time>
   <time name="orth">    1.66    1.66</time>
   <time name="total">   18.26   18.31</time>
   <energy>
    <i name="e_fr_energy">   -262.55766513 </i>
    <i name="e_wo_entrp">   -261.88357011 </i>
    <i name="e_0_energy">   -262.22061762 </i>
   </energy>
  </scstep>
  <scstep>
   <time name="diag">    4.83    4.85</time>
   <time name="diis">    9.42    9.44</time>
   <time name="orth">    1.65    1.66</time>
   <time name="total">   18.20   18.24</time>
   <energy>
    <i name="e_fr_energy">   -262.56388782 </i>
    <i name="e_wo_entrp">   -261.88958741 </i>
    <i name="e_0_energy">   -262.22673762 </i>
   </energy>
  </scstep>
  <scstep>
   <time name="diag">    4.84    4.86</time>
   <time name="diis">    9.43    9.46</time>
   <time name="orth">    1.66    1.67</time>
   <time name="total">   18.23   18.27</time>
   <energy>
    <i name="e_fr_energy">   -262.57241849 </i>
    <i name="e_wo_entrp">   -261.89861837 </i>
    <i name="e_0_energy">   -262.23551843 </i>
   </energy>
  </scstep>
  <scstep>
   <time name="diag">    4.84    4.85</time>
   <time name="diis">    9.46    9.48</time>
   <time name="orth">    1.67    1.68</time>
   <time name="total">   18.25   18.30</time>
   <energy>
    <i name="e_fr_energy">   -262.57438612 </i>
    <i name="e_wo_entrp">   -261.90032047 </i>
    <i name="e_0_energy">   -262.23735330 </i>
   </energy>
  </scstep>
  <scstep>
   <time name="diag">    4.86    4.87</time>
   <time name="diis">    9.44    9.46</time>
   <time name="orth">    1.66    1.66</time>
   <time name="total">   18.26   18.30</time>
   <energy>
    <i name="e_fr_energy">   -262.57825345 </i>
    <i name="e_wo_entrp">   -261.90391955 </i>
    <i name="e_0_energy">   -262.24108650 </i>
   </energy>
  </scstep>
  <scstep>
   <time name="diag">    4.84    4.85</time>
   <time name="diis">    9.41    9.44</time>
   <time name="orth">    1.66    1.66</time>
   <time name="total">   18.22   18.27</time>
   <energy>
    <i name="e_fr_energy">   -262.58030243 </i>
    <i name="e_wo_entrp">   -261.90548983 </i>
    <i name="e_0_energy">   -262.24289613 </i>
   </energy>
  </scstep>
  <scstep>
   <time name="diag">    4.86    4.87</time>
   <time name="diis">    9.42    9.44</time>
   <time name="orth">    1.66    1.66</time>
   <time name="total">   18.23   18.28</time>
   <energy>
    <i name="e_fr_energy">   -262.58132171 </i>
    <i name="e_wo_entrp">   -261.90639721 </i>
    <i name="e_0_energy">   -262.24385946 </i>
   </energy>
  </scstep>
  <scstep>
   <time name="diag">    4.85    4.86</time>
   <time name="diis">    9.34    9.37</time>
   <time name="orth">    1.76    1.76</time>
   <time name="total">   18.23   18.27</time>
   <energy>
    <i name="e_fr_energy">   -262.58192906 </i>
    <i name="e_wo_entrp">   -261.90701736 </i>
    <i name="e_0_energy">   -262.24447321 </i>
   </energy>
  </scstep>
  <scstep>
   <time name="diag">    4.85    4.86</time>
   <time name="diis">    9.40    9.42</time>
   <time name="orth">    1.66    1.66</time>
   <time name="total">   18.21   18.25</time>
   <energy>
    <i name="e_fr_energy">   -262.58302571 </i>
    <i name="e_wo_entrp">   -261.90809668 </i>
    <i name="e_0_energy">   -262.24556119 </i>
   </energy>
  </scstep>
  <scstep>
   <time name="diag">    4.85    4.86</time>
   <time name="diis">    9.43    9.45</time>
   <time name="orth">    1.66    1.66</time>
   <time name="total">   18.23   18.28</time>
   <energy>
    <i name="e_fr_energy">   -262.58430873 </i>
    <i name="e_wo_entrp">   -261.90934612 </i>
    <i name="e_0_energy">   -262.24682743 </i>
   </energy>
  </scstep>
  <scstep>
   <time name="diag">    4.83    4.84</time>
   <time name="diis">    9.39    9.42</time>
   <time name="orth">    1.66    1.66</time>
   <time name="total">   18.20   18.25</time>
   <energy>
    <i name="e_fr_energy">   -262.58483978 </i>
    <i name="e_wo_entrp">   -261.90990999 </i>
    <i name="e_0_energy">   -262.24737489 </i>
   </energy>
  </scstep>
  <scstep>
   <time name="diag">    4.87    4.88</time>
   <time name="diis">    9.38    9.41</time>
   <time name="orth">    1.65    1.66</time>
   <time name="total">   18.20   18.25</time>
   <energy>
    <i name="e_fr_energy">   -262.58569546 </i>
    <i name="e_wo_entrp">   -261.91069949 </i>
    <i name="e_0_energy">   -262.24819747 </i>
   </energy>
  </scstep>
  <scstep>
   <time name="diag">    4.85    4.86</time>
   <time name="diis">    9.39    9.42</time>
   <time name="orth">    1.66    1.66</time>
   <time name="total">   18.18   18.23</time>
   <energy>
    <i name="e_fr_energy">   -262.58608357 </i>
    <i name="e_wo_entrp">   -261.91120107 </i>
    <i name="e_0_energy">   -262.24864232 </i>
   </energy>
  </scstep>
  <scstep>
   <time name="diag">    4.84    4.85</time>
   <time name="diis">    9.08    9.10</time>
   <time name="orth">    1.65    1.66</time>
   <time name="total">   17.87   17.91</time>
   <energy>
    <i name="e_fr_energy">   -262.58612884 </i>
    <i name="e_wo_entrp">   -261.91113315 </i>
    <i name="e_0_energy">   -262.24863100 </i>
   </energy>
  </scstep>
  <scstep>
   <time name="diag">    4.83    4.85</time>
   <time name="diis">    8.56    8.58</time>
   <time name="orth">    1.66    1.66</time>
   <time name="total">   17.34   17.38</time>
   <energy>
    <i name="e_fr_energy">   -262.58658186 </i>
    <i name="e_wo_entrp">   -261.91165462 </i>
    <i name="e_0_energy">   -262.24911824 </i>
   </energy>
  </scstep>
  <scstep>
   <time name="diag">    4.85    4.86</time>
   <time name="diis">    7.81    7.83</time>
   <time name="orth">    1.66    1.66</time>
   <time name="total">   16.63   16.67</time>
   <energy>
    <i name="e_fr_energy">   -262.58677465 </i>
    <i name="e_wo_entrp">   -261.91186560 </i>
    <i name="e_0_energy">   -262.24932013 </i>
   </energy>
  </scstep>
  <scstep>
   <time name="diag">    4.85    4.86</time>
   <time name="diis">    7.88    7.90</time>
   <time name="orth">    1.65    1.66</time>
   <time name="total">   16.67   16.71</time>
   <energy>
    <i name="e_fr_energy">   -262.58699615 </i>
    <i name="e_wo_entrp">   -261.91200182 </i>
    <i name="e_0_energy">   -262.24949899 </i>
   </energy>
  </scstep>
  <scstep>
   <time name="diag">    4.85    4.86</time>
   <time name="diis">    6.58    6.59</time>
   <time name="orth">    1.66    1.66</time>
   <time name="total">   15.37   15.40</time>
   <energy>
    <i name="e_fr_energy">   -262.58692860 </i>
    <i name="e_wo_entrp">   -261.91186932 </i>
    <i name="e_0_energy">   -262.24939896 </i>
   </energy>
  </scstep>
  <scstep>
   <time name="diag">    4.85    4.86</time>
   <time name="diis">    6.86    6.88</time>
   <time name="orth">    1.66    1.66</time>
   <time name="total">   15.67   15.71</time>
   <energy>
    <i name="e_fr_energy">   -262.58705308 </i>
    <i name="e_wo_entrp">   -261.91203909 </i>
    <i name="e_0_energy">   -262.24954609 </i>
   </energy>
  </scstep>
  <scstep>
   <time name="diag">    4.86    4.87</time>
   <time name="diis">    6.34    6.36</time>
   <time name="orth">    1.66    1.66</time>
   <time name="total">   15.16   15.19</time>
   <energy>
    <i name="e_fr_energy">   -262.58703600 </i>
    <i name="e_wo_entrp">   -261.91201634 </i>
    <i name="e_0_energy">   -262.24952617 </i>
   </energy>
  </scstep>
  <scstep>
   <time name="diag">    4.83    4.85</time>
   <time name="diis">    6.90    6.92</time>
   <time name="orth">    1.66    1.66</time>
   <time name="total">   15.71   15.75</time>
   <energy>
    <i name="e_fr_energy">   -262.58710900 </i>
    <i name="e_wo_entrp">   -261.91211443 </i>
    <i name="e_0_energy">   -262.24961172 </i>
   </energy>
  </scstep>
  <scstep>
   <time name="diag">    4.84    4.85</time>
   <time name="diis">    6.25    6.27</time>
   <time name="orth">    1.66    1.66</time>
   <time name="total">   15.04   15.08</time>
   <energy>
    <i name="e_fr_energy">   -262.58714958 </i>
    <i name="e_wo_entrp">   -261.91213917 </i>
    <i name="e_0_energy">   -262.24964438 </i>
   </energy>
  </scstep>
  <scstep>
   <time name="diag">    4.86    4.87</time>
   <time name="diis">    6.57    6.58</time>
   <time name="orth">    1.66    1.66</time>
   <time name="total">   15.37   15.41</time>
   <energy>
    <i name="e_fr_energy">   -262.58725214 </i>
    <i name="e_wo_entrp">   -261.91224638 </i>
    <i name="e_0_energy">   -262.24974926 </i>
   </energy>
  </scstep>
  <scstep>
   <time name="diag">    4.84    4.85</time>
   <time name="diis">    6.05    6.06</time>
   <time name="orth">    1.66    1.66</time>
   <time name="total">   14.84   14.88</time>
   <energy>
    <i name="e_fr_energy">   -262.58722358 </i>
    <i name="e_wo_entrp">   -261.91220394 </i>
    <i name="e_0_energy">   -262.24971376 </i>
   </energy>
  </scstep>
  <scstep>
   <time name="diag">    4.85    4.86</time>
   <time name="diis">    6.02    6.03</time>
   <time name="orth">    1.66    1.66</time>
   <time name="total">   14.84   14.87</time>
   <energy>
    <i name="e_fr_energy">   -262.58726327 </i>
    <i name="e_wo_entrp">   -261.91222513 </i>
    <i name="e_0_energy">   -262.24974420 </i>
   </energy>
  </scstep>
  <scstep>
   <time name="diag">    4.86    4.87</time>
   <time name="diis">    6.03    6.04</time>
   <time name="orth">    1.66    1.66</time>
   <time name="total">   14.91   14.95</time>
   <energy>
    <i name="e_fr_energy">   -262.58728288 </i>
    <i name="e_wo_entrp">   -261.91225172 </i>
    <i name="e_0_energy">   -262.24976730 </i>
   </energy>
  </scstep>
  <scstep>
   <time name="diag">    4.85    4.88</time>
   <time name="diis">    6.15    6.16</time>
   <time name="orth">    1.65    1.66</time>
   <time name="total">   14.96   15.01</time>
   <energy>
    <i name="e_fr_energy">   -262.58732720 </i>
    <i name="e_wo_entrp">   -261.91230946 </i>
    <i name="e_0_energy">   -262.24981833 </i>
   </energy>
  </scstep>
  <scstep>
   <time name="diag">    4.84    4.85</time>
   <time name="diis">    5.90    5.91</time>
   <time name="orth">    1.66    1.66</time>
   <time name="total">   14.69   14.72</time>
   <energy>
    <i name="e_fr_energy">   -262.58734095 </i>
    <i name="e_wo_entrp">   -261.91231940 </i>
    <i name="e_0_energy">   -262.24983018 </i>
   </energy>
  </scstep>
  <scstep>
   <time name="diag">    4.86    4.87</time>
   <time name="diis">    5.93    5.95</time>
   <time name="orth">    1.66    1.67</time>
   <time name="total">   14.75   14.78</time>
   <energy>
    <i name="e_fr_energy">   -262.58735967 </i>
    <i name="e_wo_entrp">   -261.91234170 </i>
    <i name="e_0_energy">   -262.24985068 </i>
   </energy>
  </scstep>
  <scstep>
   <time name="diag">    4.84    4.85</time>
   <time name="diis">    5.68    5.69</time>
   <time name="orth">    1.66    1.66</time>
   <time name="total">   14.48   14.52</time>
   <energy>
    <i name="e_fr_energy">   -262.58737005 </i>
    <i name="e_wo_entrp">   -261.91235300 </i>
    <i name="e_0_energy">   -262.24986152 </i>
   </energy>
  </scstep>
  <scstep>
   <time name="diag">    4.84    4.85</time>
   <time name="diis">    5.80    5.81</time>
   <time name="orth">    1.66    1.66</time>
   <time name="total">   14.61   14.65</time>
   <energy>
    <i name="e_fr_energy">   -262.58737769 </i>
    <i name="e_wo_entrp">   -261.91236027 </i>
    <i name="e_0_energy">   -262.24986898 </i>
   </energy>
  </scstep>
  <scstep>
   <time name="diag">    4.85    4.87</time>
   <time name="diis">    5.03    5.05</time>
   <time name="orth">    1.65    1.66</time>
   <time name="total">   13.82   13.87</time>
   <energy>
    <i name="e_fr_energy">   -262.58738117 </i>
    <i name="e_wo_entrp">   -261.91235996 </i>
    <i name="e_0_energy">   -262.24987057 </i>
   </energy>
  </scstep>
  <scstep>
   <time name="diag">    4.84    4.86</time>
   <time name="diis">    4.78    4.79</time>
   <time name="orth">    1.66    1.66</time>
   <time name="total">   12.24   12.28</time>
   <energy>
    <i name="alphaZ">    387.12086559 </i>
    <i name="ewald"> 180958.51048671 </i>
    <i name="hartreedc">-235847.57243060 </i>
    <i name="XCdc">   1681.41276702 </i>
    <i name="pawpsdc">  50017.98998490 </i>
    <i name="pawaedc"> -53773.00674896 </i>
    <i name="eentropy">     -0.67502342 </i>
    <i name="bandstr">  -3247.26990454 </i>
    <i name="atom">  59560.90262231 </i>
    <i name="e_fr_energy">   -262.58738099 </i>
    <i name="e_wo_entrp">   -261.91235757 </i>
    <i name="e_0_energy">   -262.24986928 </i>
   </energy>
  </scstep>
  <structure>
   <crystal>
    <varray name="basis" >
     <v>      20.00000000       0.00000000       0.00000000 </v>
     <v>       0.00000000      20.00000000       0.00000000 </v>
     <v>       0.00000000       0.00000000      20.00000000 </v>
    </varray>
    <i name="volume">   8000.00000000 </i>
    <varray name="rec_basis" >
     <v>       0.05000000       0.00000000       0.00000000 </v>
     <v>       0.00000000       0.05000000       0.00000000 </v>
     <v>       0.00000000       0.00000000       0.05000000 </v>
    </varray>
   </crystal>
   <varray name="positions" >
    <v>       0.34999999       0.59609997       0.41023001 </v>
    <v>       0.45111999       0.66298002       0.37739000 </v>
    <v>       0.41144001       0.66333997       0.49592999 </v>
    <v>       0.51289999       0.72356999       0.46397001 </v>
    <v>       0.51455998       0.60857999       0.46454999 </v>
    <v>       0.57696998       0.66512001       0.37803999 </v>
    <v>       0.61531001       0.66529000       0.49739999 </v>
    <v>       0.31621998       0.59328002       0.52759999 </v>
    <v>       0.35165000       0.48844001       0.58240998 </v>
    <v>       0.41481999       0.54310000       0.49675000 </v>
    <v>       0.41226000       0.59715998       0.60433000 </v>
    <v>       0.51300001       0.66443002       0.57078999 </v>
    <v>       0.51393002       0.54326999       0.57043999 </v>
    <v>       0.61514002       0.54430997       0.49803001 </v>
    <v>       0.61504000       0.59938997       0.60447001 </v>
    <v>       0.39269999       0.59319001       0.29561001 </v>
    <v>       0.35174000       0.48896000       0.34492999 </v>
    <v>       0.45374000       0.49070001       0.27023000 </v>
    <v>       0.45361000       0.54241002       0.37911001 </v>
    <v>       0.51520002       0.59798002       0.29126000 </v>
    <v>       0.51659000       0.43858001       0.35894001 </v>
    <v>       0.57914001       0.49233002       0.27079999 </v>
    <v>       0.57756001       0.54448003       0.37959999 </v>
    <v>       0.31229001       0.48839000       0.46421999 </v>
    <v>       0.35187000       0.38130999       0.51739001 </v>
    <v>       0.41624001       0.43660000       0.43307000 </v>
    <v>       0.45506999       0.43731001       0.55010003 </v>
    <v>       0.51587999       0.49059999       0.46496999 </v>
    <v>       0.51804000       0.37242001       0.46355999 </v>
    <v>       0.61691999       0.43946001       0.43193999 </v>
    <v>       0.57789999       0.43765000       0.55014002 </v>
    <v>       0.67907000       0.59966999       0.41204000 </v>
    <v>       0.71208000       0.59684998       0.52977002 </v>
    <v>       0.68033999       0.49168000       0.58374000 </v>
    <v>       0.63770002       0.59675997       0.29679000 </v>
    <v>       0.68107003       0.49320999       0.34472001 </v>
    <v>       0.71951002       0.49331000       0.46399999 </v>
    <v>       0.68197000       0.38521001       0.51692998 </v>
    <v>       0.45265999       0.49094000       0.66323000 </v>
    <v>       0.51353002       0.59705001       0.67210001 </v>
    <v>       0.57927000       0.49200001       0.65692002 </v>
    <v>       0.39315000       0.38383001       0.63277000 </v>
    <v>       0.45515999       0.31744999       0.54939002 </v>
    <v>       0.51909000       0.38150001       0.64209998 </v>
    <v>       0.58157003       0.31762001       0.55027002 </v>
    <v>       0.64121002       0.38648999       0.63142002 </v>
    <v>       0.41586000       0.38284001       0.32444999 </v>
    <v>       0.51719999       0.38745001       0.25582999 </v>
    <v>       0.61895001       0.38558999       0.32365999 </v>
    <v>       0.31948999       0.38475001       0.39871001 </v>
    <v>       0.41635999       0.31641999       0.43090999 </v>
    <v>       0.51840001       0.31786001       0.35631999 </v>
    <v>       0.62011999       0.31862000       0.42938000 </v>
    <v>       0.71500999       0.38927999       0.39916000 </v>
    <v>       0.51953000       0.25764999       0.46280000 </v>
    <v>       0.44926000       0.40059999       0.72285998 </v>
   </varray>
  </structure>
  <varray name="forces" >
   <v>      -0.01715812       0.00532291      -0.02019653 </v>
   <v>       0.02000034       0.00346206       0.00352750 </v>
   <v>      -0.00185157      -0.01373527       0.06290240 </v>
   <v>      -0.01261273       0.01572723       0.00394363 </v>
   <v>      -0.00305592       0.00803734      -0.02209889 </v>
   <v>      -0.00448035      -0.01135696      -0.01081328 </v>
   <v>       0.02745829       0.00429956      -0.01207662 </v>
   <v>       0.03637425      -0.02392828       0.04497384 </v>
   <v>      -0.05072188      -0.00176162       0.01560423 </v>
   <v>       0.02859595      -0.02779739      -0.05392767 </v>
   <v>      -0.01152802      -0.05177564       0.00110429 </v>
   <v>       0.00956666      -0.03578222       0.03959931 </v>
   <v>       0.02344544      -0.00695857       0.02631536 </v>
   <v>      -0.00885723       0.00198113      -0.06256890 </v>
   <v>       0.04651478      -0.03337758       0.01486789 </v>
   <v>      -0.00958444       0.03547148      -0.00304331 </v>
   <v>       0.01289719      -0.00746149      -0.03441920 </v>
   <v>       0.01446291       0.00515722       0.00511094 </v>
   <v>      -0.00733773       0.01386205      -0.00396431 </v>
   <v>       0.01392310      -0.01089941      -0.00196299 </v>
   <v>      -0.01123458      -0.01455775       0.00944864 </v>
   <v>       0.00183795       0.00739184       0.00549044 </v>
   <v>      -0.00366314      -0.01644795       0.00994936 </v>
   <v>       0.01474113      -0.03279155      -0.00376460 </v>
   <v>      -0.00510907      -0.01067715       0.00513665 </v>
   <v>      -0.00141458      -0.00509247      -0.03092159 </v>
   <v>       0.00830083       0.00236356      -0.03924008 </v>
   <v>      -0.00644373      -0.00426374      -0.00857024 </v>
   <v>      -0.01175144       0.06100347      -0.00420468 </v>
   <v>       0.00228945       0.01013548      -0.03656665 </v>
   <v>       0.01471230      -0.00339648       0.00106055 </v>
   <v>       0.03715806       0.01847444      -0.05173812 </v>
   <v>      -0.02480883      -0.01214386      -0.01364667 </v>
   <v>      -0.00576360       0.03620866       0.01867825 </v>
   <v>      -0.01422068       0.01045688      -0.02323415 </v>
   <v>      -0.02815406      -0.01041384       0.00209396 </v>
   <v>       0.00848436       0.00135185      -0.00481292 </v>
   <v>      -0.01415002       0.01798116       0.02763829 </v>
   <v>      -0.02909642       0.07209504       0.03598182 </v>
   <v>       0.03062806      -0.03465920       0.00801418 </v>
   <v>       0.04150113       0.01808575       0.00480284 </v>
   <v>      -0.02340785      -0.02241566       0.04543470 </v>
   <v>      -0.02417844      -0.02526213      -0.00255497 </v>
   <v>       0.02863256      -0.07354025       0.02025408 </v>
   <v>      -0.05876986       0.02358900       0.00853869 </v>
   <v>      -0.03121005       0.03298317       0.02710895 </v>
   <v>       0.00196019       0.03763696      -0.02584918 </v>
   <v>       0.00396620      -0.01221214      -0.02151508 </v>
   <v>       0.00360528       0.02299434       0.01410700 </v>
   <v>      -0.00373042       0.00070058      -0.02132496 </v>
   <v>      -0.00691626       0.00787217       0.01714863 </v>
   <v>      -0.01757877      -0.01183987      -0.00488373 </v>
   <v>      -0.01421426      -0.00335453       0.05422379 </v>
   <v>       0.02495276      -0.00553619       0.02101461 </v>
   <v>      -0.01418981       0.02768648       0.04957107 </v>
   <v>       0.02118469       0.02110740      -0.08574658 </v>
  </varray>
  <energy>
   <i name="e_fr_energy">   -262.58738099 </i>
   <i name="e_wo_entrp">   -262.24986928 </i>
   <i name="e_0_energy">     -0.67502342 </i>
  </energy>
  <time name="totalsc"> 1456.79 1460.38</time>
 </calculation>
 <calculation>
  <scstep>
   <time name="dav">   23.86   23.98</time>
   <time name="total">   25.96   26.09</time>
   <energy>
    <i name="alphaZ">    387.12086559 </i>
    <i name="ewald"> 180954.63874388 </i>
    <i name="hartreedc">-235843.73117520 </i>
    <i name="XCdc">   1681.40987234 </i>
    <i name="pawpsdc">  50017.98844801 </i>
    <i name="pawaedc"> -53773.00501143 </i>
    <i name="eentropy">     -0.67497729 </i>
    <i name="bandstr">  -3247.23854000 </i>
    <i name="atom">  59560.90262231 </i>
    <i name="e_fr_energy">   -262.58915178 </i>
    <i name="e_wo_entrp">   -261.91417449 </i>
    <i name="e_0_energy">   -262.25166313 </i>
   </energy>
  </scstep>
  <scstep>
   <time name="diag">    4.85    4.87</time>
   <time name="diis">    9.45    9.49</time>
   <time name="orth">    1.66    1.67</time>
   <time name="total">   18.04   18.10</time>
   <energy>
    <i name="e_fr_energy">   -262.59072470 </i>
    <i name="e_wo_entrp">   -261.91474234 </i>
    <i name="e_0_energy">   -262.25273352 </i>
   </energy>
  </scstep>
  <scstep>
   <time name="diag">    4.84    4.85</time>
   <time name="diis">    9.44    9.49</time>
   <time name="orth">    1.65    1.66</time>
   <time name="total">   18.00   18.08</time>
   <energy>
    <i name="e_fr_energy">   -262.58894664 </i>
    <i name="e_wo_entrp">   -261.91358168 </i>
    <i name="e_0_energy">   -262.25126416 </i>
   </energy>
  </scstep>
  <scstep>
   <time name="diag">    4.84    4.85</time>
   <time name="diis">    9.48    9.56</time>
   <time name="orth">    1.65    1.66</time>
   <time name="total">   18.05   18.16</time>
   <energy>
    <i name="e_fr_energy">   -262.58948155 </i>
    <i name="e_wo_entrp">   -261.91522877 </i>
    <i name="e_0_energy">   -262.25235516 </i>
   </energy>
  </scstep>
  <scstep>
   <time name="diag">    4.84    4.85</time>
   <time name="diis">    9.47    9.50</time>
   <time name="orth">    1.65    1.66</time>
   <time name="total">   18.05   18.10</time>
   <energy>
    <i name="e_fr_energy">   -262.58943051 </i>
    <i name="e_wo_entrp">   -261.91366139 </i>
    <i name="e_0_energy">   -262.25154595 </i>
   </energy>
  </scstep>
  <scstep>
   <time name="diag">    4.86    4.87</time>
   <time name="diis">    9.48    9.50</time>
   <time name="orth">    1.66    1.66</time>
   <time name="total">   18.07   18.12</time>
   <energy>
    <i name="e_fr_energy">   -262.58921247 </i>
    <i name="e_wo_entrp">   -261.91420506 </i>
    <i name="e_0_energy">   -262.25170876 </i>
   </energy>
  </scstep>
  <scstep>
   <time name="diag">    4.84    4.86</time>
   <time name="diis">    9.38    9.40</time>
   <time name="orth">    1.67    1.67</time>
   <time name="total">   17.97   18.02</time>
   <energy>
    <i name="e_fr_energy">   -262.58928884 </i>
    <i name="e_wo_entrp">   -261.91414663 </i>
    <i name="e_0_energy">   -262.25171773 </i>
   </energy>
  </scstep>
  <scstep>
   <time name="diag">    4.86    4.87</time>
   <time name="diis">    9.35    9.37</time>
   <time name="orth">    1.66    1.67</time>
   <time name="total">   17.95   18.00</time>
   <energy>
    <i name="e_fr_energy">   -262.58931849 </i>
    <i name="e_wo_entrp">   -261.91405439 </i>
    <i name="e_0_energy">   -262.25168644 </i>
   </energy>
  </scstep>
  <scstep>
   <time name="diag">    4.85    4.86</time>
   <time name="diis">    9.35    9.38</time>
   <time name="orth">    1.66    1.67</time>
   <time name="total">   17.96   18.00</time>
   <energy>
    <i name="e_fr_energy">   -262.58928239 </i>
    <i name="e_wo_entrp">   -261.91405312 </i>
    <i name="e_0_energy">   -262.25166775 </i>
   </energy>
  </scstep>
  <scstep>
   <time name="diag">    4.85    4.86</time>
   <time name="diis">    9.28    9.30</time>
   <time name="orth">    1.66    1.66</time>
   <time name="total">   17.88   17.92</time>
   <energy>
    <i name="e_fr_energy">   -262.58928807 </i>
    <i name="e_wo_entrp">   -261.91414052 </i>
    <i name="e_0_energy">   -262.25171429 </i>
   </energy>
  </scstep>
  <scstep>
   <time name="diag">    4.97    4.98</time>
   <time name="diis">    9.07    9.09</time>
   <time name="orth">    1.66    1.66</time>
   <time name="total">   17.79   17.83</time>
   <energy>
    <i name="e_fr_energy">   -262.58929279 </i>
    <i name="e_wo_entrp">   -261.91426255 </i>
    <i name="e_0_energy">   -262.25177767 </i>
   </energy>
  </scstep>
  <scstep>
   <time name="diag">    4.86    4.87</time>
   <time name="diis">    8.83    8.85</time>
   <time name="orth">    1.65    1.66</time>
   <time name="total">   17.44   17.48</time>
   <energy>
    <i name="e_fr_energy">   -262.58928453 </i>
    <i name="e_wo_entrp">   -261.91423843 </i>
    <i name="e_0_energy">   -262.25176148 </i>
   </energy>
  </scstep>
  <scstep>
   <time name="diag">    4.86    4.87</time>
   <time name="diis">    7.41    7.42</time>
   <time name="orth">    1.67    1.68</time>
   <time name="total">   16.03   16.06</time>
   <energy>
    <i name="e_fr_energy">   -262.58928241 </i>
    <i name="e_wo_entrp">   -261.91414445 </i>
    <i name="e_0_energy">   -262.25171343 </i>
   </energy>
  </scstep>
  <scstep>
   <time name="diag">    4.85    4.86</time>
   <time name="diis">    5.72    5.73</time>
   <time name="orth">    1.67    1.67</time>
   <time name="total">   13.22   13.25</time>
   <energy>
    <i name="alphaZ">    387.12086559 </i>
    <i name="ewald"> 180954.63874388 </i>
    <i name="hartreedc">-235843.74520345 </i>
    <i name="XCdc">   1681.40998132 </i>
    <i name="pawpsdc">  50017.69803938 </i>
    <i name="pawaedc"> -53772.70260414 </i>
    <i name="eentropy">     -0.67511868 </i>
    <i name="bandstr">  -3247.23660899 </i>
    <i name="atom">  59560.90262231 </i>
    <i name="e_fr_energy">   -262.58928276 </i>
    <i name="e_wo_entrp">   -261.91416408 </i>
    <i name="e_0_energy">   -262.25172342 </i>
   </energy>
  </scstep>
  <structure>
   <crystal>
    <varray name="basis" >
     <v>      20.00000000       0.00000000       0.00000000 </v>
     <v>       0.00000000      20.00000000       0.00000000 </v>
     <v>       0.00000000       0.00000000      20.00000000 </v>
    </varray>
    <i name="volume">   8000.00000000 </i>
    <varray name="rec_basis" >
     <v>       0.05000000       0.00000000       0.00000000 </v>
     <v>       0.00000000       0.05000000       0.00000000 </v>
     <v>       0.00000000       0.00000000       0.05000000 </v>
    </varray>
   </crystal>
   <varray name="positions" >
    <v>       0.34998344       0.59610511       0.41021052 </v>
    <v>       0.45113929       0.66298336       0.37739340 </v>
    <v>       0.41143823       0.66332672       0.49599068 </v>
    <v>       0.51288783       0.72358516       0.46397381 </v>
    <v>       0.51455704       0.60858775       0.46452867 </v>
    <v>       0.57696566       0.66510905       0.37802955 </v>
    <v>       0.61533651       0.66529415       0.49738833 </v>
    <v>       0.31625508       0.59325693       0.52764338 </v>
    <v>       0.35160106       0.48843831       0.58242503 </v>
    <v>       0.41484758       0.54307318       0.49669796 </v>
    <v>       0.41224887       0.59711003       0.60433107 </v>
    <v>       0.51300924       0.66439550       0.57082820 </v>
    <v>       0.51395264       0.54326328       0.57046538 </v>
    <v>       0.61513148       0.54431189       0.49796964 </v>
    <v>       0.61508488       0.59935777       0.60448436 </v>
    <v>       0.39269074       0.59322424       0.29560707 </v>
    <v>       0.35175245       0.48895280       0.34489678 </v>
    <v>       0.45375396       0.49070498       0.27023493 </v>
    <v>       0.45360292       0.54242339       0.37910618 </v>
    <v>       0.51521345       0.59796951       0.29125811 </v>
    <v>       0.51657916       0.43856596       0.35894912 </v>
    <v>       0.57914178       0.49233715       0.27080529 </v>
    <v>       0.57755647       0.54446416       0.37960959 </v>
    <v>       0.31230424       0.48835836       0.46421635 </v>
    <v>       0.35186507       0.38129968       0.51739497 </v>
    <v>       0.41623864       0.43659509       0.43304017 </v>
    <v>       0.45507800       0.43731229       0.55006217 </v>
    <v>       0.51587377       0.49059588       0.46496172 </v>
    <v>       0.51802866       0.37247887       0.46355593 </v>
    <v>       0.61692220       0.43946979       0.43190471 </v>
    <v>       0.57791419       0.43764672       0.55014105 </v>
    <v>       0.67910585       0.59968782       0.41199008 </v>
    <v>       0.71205607       0.59683826       0.52975685 </v>
    <v>       0.68033443       0.49171493       0.58375802 </v>
    <v>       0.63768630       0.59677006       0.29676759 </v>
    <v>       0.68104287       0.49319994       0.34472203 </v>
    <v>       0.71951821       0.49331131       0.46399534 </v>
    <v>       0.68195635       0.38522736       0.51695665 </v>
    <v>       0.45263192       0.49100957       0.66326472 </v>
    <v>       0.51355957       0.59701657       0.67210774 </v>
    <v>       0.57931005       0.49201746       0.65692465 </v>
    <v>       0.39312742       0.38380838       0.63281384 </v>
    <v>       0.45513666       0.31742561       0.54938755 </v>
    <v>       0.51911762       0.38142905       0.64211952 </v>
    <v>       0.58151332       0.31764277       0.55027826 </v>
    <v>       0.64117991       0.38652181       0.63144617 </v>
    <v>       0.41586189       0.38287632       0.32442505 </v>
    <v>       0.51720382       0.38743823       0.25580923 </v>
    <v>       0.61895349       0.38561217       0.32367360 </v>
    <v>       0.31948639       0.38475068       0.39868944 </v>
    <v>       0.41635332       0.31642758       0.43092654 </v>
    <v>       0.51838305       0.31784858       0.35631528 </v>
    <v>       0.62010627       0.31861676       0.42943232 </v>
    <v>       0.71503406       0.38927465       0.39918027 </v>
    <v>       0.51951631       0.25767670       0.46284782 </v>
    <v>       0.44928044       0.40062035       0.72277725 </v>
   </varray>
  </structure>
  <varray name="forces" >
   <v>      -0.01517191       0.00187467      -0.01332420 </v>
   <v>       0.01768860       0.00476736       0.00459784 </v>
   <v>       0.00061237      -0.01326084       0.05924749 </v>
   <v>      -0.01213030       0.01106093       0.00650479 </v>
   <v>      -0.00205296       0.00993329      -0.01650902 </v>
   <v>      -0.00273049      -0.00819584      -0.01096196 </v>
   <v>       0.01976413       0.00364737      -0.01071129 </v>
   <v>       0.03299824      -0.02331926       0.03440217 </v>
   <v>      -0.04126990      -0.00386921       0.01126411 </v>
   <v>       0.02024106      -0.02329970      -0.04174008 </v>
   <v>      -0.00904066      -0.05102968       0.00331293 </v>
   <v>       0.01328744      -0.03479522       0.03404772 </v>
   <v>       0.02129853      -0.00750580       0.01547283 </v>
   <v>      -0.00706473       0.00376356      -0.05480161 </v>
   <v>       0.04137540      -0.03073112       0.01306785 </v>
   <v>      -0.01051525       0.02575187      -0.00585088 </v>
   <v>       0.01187087      -0.00487761      -0.03391180 </v>
   <v>       0.01281574       0.00711757       0.00329431 </v>
   <v>      -0.00752704       0.01378925      -0.00682484 </v>
   <v>       0.01234566      -0.00980036      -0.00262502 </v>
   <v>      -0.00983626      -0.01262770       0.00217961 </v>
   <v>       0.00105311       0.00642265       0.00472213 </v>
   <v>      -0.00256860      -0.01164443       0.00494709 </v>
   <v>       0.01413351      -0.02964048      -0.00099083 </v>
   <v>      -0.00385182      -0.00898247       0.00508905 </v>
   <v>      -0.00369439      -0.00538145      -0.02985692 </v>
   <v>       0.00203549      -0.00177221      -0.02310238 </v>
   <v>      -0.00270054       0.00097941      -0.00827588 </v>
   <v>      -0.01142601       0.04049304      -0.00452350 </v>
   <v>       0.00404900       0.00688630      -0.03062418 </v>
   <v>       0.01053484       0.00150595       0.00098038 </v>
   <v>       0.03175046       0.01696767      -0.04732121 </v>
   <v>      -0.02176828      -0.01078828      -0.01580973 </v>
   <v>      -0.00262701       0.03477133       0.01484066 </v>
   <v>      -0.01539626       0.00618471      -0.02037525 </v>
   <v>      -0.02366173      -0.00836379       0.00020620 </v>
   <v>       0.00659394       0.00124140      -0.00287574 </v>
   <v>      -0.01237558       0.01654042       0.02523104 </v>
   <v>      -0.02429720       0.06084918       0.02851347 </v>
   <v>       0.02930615      -0.03176274       0.01206979 </v>
   <v>       0.03808487       0.01493431       0.00713690 </v>
   <v>      -0.02049502      -0.01601109       0.02490606 </v>
   <v>      -0.02557858      -0.01871964       0.00040629 </v>
   <v>       0.02607193      -0.06237344       0.01207510 </v>
   <v>      -0.05315674       0.02250873       0.01124959 </v>
   <v>      -0.02650244       0.03050376       0.02651880 </v>
[...]
       <r>     1.5552    32.2110   371.9767 </r>
       <r>     1.6239    33.1018   374.2499 </r>
       <r>     1.6926    35.2938   376.6736 </r>
       <r>     1.7612    29.5124   378.7003 </r>
       <r>     1.8299    14.7808   379.7154 </r>
       <r>     1.8986     3.7021   379.9696 </r>
       <r>     1.9672     0.4217   379.9985 </r>
       <r>     2.0359     0.0208   380.0000 </r>
       <r>     2.1046     0.0004   380.0000 </r>
       <r>     2.1733     0.0000   380.0000 </r>
       <r>     2.2419     0.0000   380.0000 </r>
       <r>     2.3106     0.0000   380.0000 </r>
       <r>     2.3793     0.0000   380.0000 </r>
       <r>     2.4480     0.0000   380.0000 </r>
       <r>     2.5166     0.0000   380.0000 </r>
       <r>     2.5853     0.0000   380.0000 </r>
       <r>     2.6540     0.0000   380.0000 </r>
       <r>     2.7226     0.0000   380.0000 </r>
       <r>     2.7913     0.0000   380.0000 </r>
      </set>
      <set comment="spin 2">
       <r>   -17.8105     0.0000     0.0000 </r>
       <r>   -17.7418     0.0000     0.0000 </r>
       <r>   -17.6732     0.0000     0.0000 </r>
       <r>   -17.6045     0.0000     0.0000 </r>
       <r>   -17.5358     0.0000     0.0000 </r>
       <r>   -17.4671     0.0000     0.0000 </r>
       <r>   -17.3985     0.0000     0.0000 </r>
       <r>   -17.3298     0.0000     0.0000 </r>
       <r>   -17.2611     0.0000     0.0000 </r>
       <r>   -17.1925     0.0000     0.0000 </r>
       <r>   -17.1238     0.0000     0.0000 </r>
       <r>   -17.0551     0.0000     0.0000 </r>
       <r>   -16.9864     0.0002     0.0000 </r>
       <r>   -16.9178     0.0081     0.0006 </r>
       <r>   -16.8491     0.1548     0.0112 </r>
       <r>   -16.7804     1.2159     0.0947 </r>
       <r>   -16.7117     3.9576     0.3665 </r>
       <r>   -16.6431     5.3758     0.7356 </r>
       <r>   -16.5744     3.0534     0.9453 </r>
       <r>   -16.5057     0.7226     0.9949 </r>
       <r>   -16.4371     0.0707     0.9998 </r>
       <r>   -16.3684     0.0028     1.0000 </r>
       <r>   -16.2997     0.0000     1.0000 </r>
       <r>   -16.2310     0.0000     1.0000 </r>
       <r>   -16.1624     0.0000     1.0000 </r>
       <r>   -16.0937     0.0000     1.0000 </r>
       <r>   -16.0250     0.0000     1.0000 </r>
       <r>   -15.9563     0.0000     1.0000 </r>
       <r>   -15.8877     0.0000     1.0000 </r>
       <r>   -15.8190     0.0000     1.0000 </r>
       <r>   -15.7503     0.0000     1.0000 </r>
       <r>   -15.6817     0.0000     1.0000 </r>
       <r>   -15.6130     0.0000     1.0000 </r>
       <r>   -15.5443     0.0000     1.0000 </r>
       <r>   -15.4756     0.0000     1.0000 </r>
       <r>   -15.4070     0.0000     1.0000 </r>
       <r>   -15.3383     0.0000     1.0000 </r>
       <r>   -15.2696     0.0000     1.0000 </r>
       <r>   -15.2009     0.0000     1.0000 </r>
       <r>   -15.1323     0.0000     1.0000 </r>
       <r>   -15.0636     0.0000     1.0000 </r>
       <r>   -14.9949     0.0000     1.0000 </r>
       <r>   -14.9263     0.0000     1.0000 </r>
       <r>   -14.8576     0.0000     1.0000 </r>
       <r>   -14.7889     0.0000     1.0000 </r>
       <r>   -14.7202     0.0000     1.0000 </r>
       <r>   -14.6516     0.0000     1.0000 </r>
       <r>   -14.5829     0.0000     1.0000 </r>
       <r>   -14.5142     0.0000     1.0000 </r>
       <r>   -14.4455     0.0000     1.0000 </r>
       <r>   -14.3769     0.0000     1.0000 </r>
       <r>   -14.3082     0.0000     1.0000 </r>
       <r>   -14.2395     0.0000     1.0000 </r>
       <r>   -14.1709     0.0000     1.0000 </r>
       <r>   -14.1022     0.0000     1.0000 </r>
       <r>   -14.0335     0.0000     1.0000 </r>
       <r>   -13.9648     0.0000     1.0000 </r>
       <r>   -13.8962     0.0000     1.0000 </r>
       <r>   -13.8275     0.0000     1.0000 </r>
       <r>   -13.7588     0.0000     1.0000 </r>
       <r>   -13.6901     0.0000     1.0000 </r>
       <r>   -13.6215     0.0000     1.0000 </r>
       <r>   -13.5528     0.0000     1.0000 </r>
       <r>   -13.4841     0.0000     1.0000 </r>
       <r>   -13.4155     0.0000     1.0000 </r>
       <r>   -13.3468     0.0000     1.0000 </r>
       <r>   -13.2781     0.0000     1.0000 </r>
       <r>   -13.2094     0.0000     1.0000 </r>
       <r>   -13.1408     0.0000     1.0000 </r>
       <r>   -13.0721     0.0000     1.0000 </r>
       <r>   -13.0034     0.0000     1.0000 </r>
       <r>   -12.9347     0.0000     1.0000 </r>
       <r>   -12.8661     0.0000     1.0000 </r>
       <r>   -12.7974     0.0000     1.0000 </r>
       <r>   -12.7287     0.0000     1.0000 </r>
       <r>   -12.6601     0.0000     1.0000 </r>
       <r>   -12.5914     0.0000     1.0000 </r>
       <r>   -12.5227     0.0000     1.0000 </r>
       <r>   -12.4540     0.0000     1.0000 </r>
       <r>   -12.3854     0.0000     1.0000 </r>
       <r>   -12.3167     0.0001     1.0000 </r>
       <r>   -12.2480     0.0031     1.0002 </r>
       <r>   -12.1793     0.0762     1.0055 </r>
       <r>   -12.1107     0.7603     1.0577 </r>
       <r>   -12.0420     3.1369     1.2731 </r>
       <r>   -11.9733     5.3930     1.6434 </r>
       <r>   -11.9047     3.8771     1.9097 </r>
       <r>   -11.8360     1.1630     1.9896 </r>
       <r>   -11.7673     0.1445     1.9995 </r>
       <r>   -11.6986     0.0074     2.0000 </r>
       <r>   -11.6300     0.0002     2.0000 </r>
       <r>   -11.5613     0.0000     2.0000 </r>
       <r>   -11.4926     0.0000     2.0000 </r>
       <r>   -11.4239     0.0000     2.0000 </r>
       <r>   -11.3553     0.0000     2.0000 </r>
       <r>   -11.2866     0.0000     2.0000 </r>
       <r>   -11.2179     0.0000     2.0000 </r>
       <r>   -11.1493     0.0000     2.0000 </r>
       <r>   -11.0806     0.0000     2.0000 </r>
       <r>   -11.0119     0.0000     2.0000 </r>
       <r>   -10.9432     0.0008     2.0001 </r>
       <r>   -10.8746     0.0310     2.0022 </r>
       <r>   -10.8059     0.5142     2.0375 </r>
       <r>   -10.7372     3.6027     2.2849 </r>
       <r>   -10.6685    10.9996     3.0403 </r>
       <r>   -10.5999    15.1989     4.0840 </r>
       <r>   -10.5312     9.8434     4.7600 </r>
       <r>   -10.4625     3.0306     4.9681 </r>
       <r>   -10.3938     0.4354     4.9980 </r>
       <r>   -10.3252     0.0280     4.9999 </r>
       <r>   -10.2565     0.0008     5.0000 </r>
       <r>   -10.1878     0.0000     5.0000 </r>
       <r>   -10.1192     0.0000     5.0000 </r>
       <r>   -10.0505     0.0000     5.0000 </r>
       <r>    -9.9818     0.0000     5.0000 </r>
       <r>    -9.9131     0.0000     5.0000 </r>
       <r>    -9.8445     0.0000     5.0000 </r>
       <r>    -9.7758     0.0000     5.0000 </r>
       <r>    -9.7071     0.0000     5.0000 </r>
       <r>    -9.6384     0.0009     5.0001 </r>
       <r>    -9.5698     0.0386     5.0027 </r>
       <r>    -9.5011     0.7074     5.0513 </r>
       <r>    -9.4324     5.4575     5.4261 </r>
       <r>    -9.3638    18.0668     6.6668 </r>
       <r>    -9.2951    26.1647     8.4636 </r>
       <r>    -9.2264    17.0427     9.6339 </r>
       <r>    -9.1577     6.3361    10.0691 </r>
       <r>    -9.0891     4.9274    10.4074 </r>
       <r>    -9.0204     5.3002    10.7714 </r>
       <r>    -8.9517     2.6997    10.9568 </r>
       <r>    -8.8830     0.5761    10.9964 </r>
       <r>    -8.8144     0.0508    10.9999 </r>
       <r>    -8.7457     0.0020    11.0000 </r>
       <r>    -8.6770     0.0109    11.0008 </r>
       <r>    -8.6084     0.2345    11.0169 </r>
       <r>    -8.5397     2.1137    11.1620 </r>
       <r>    -8.4710     8.2473    11.7284 </r>
       <r>    -8.4023    14.7399    12.7406 </r>
       <r>    -8.3337    13.7367    13.6840 </r>
       <r>    -8.2650     9.5107    14.3371 </r>
       <r>    -8.1963     7.1997    14.8315 </r>
       <r>    -8.1276     7.7429    15.3632 </r>
       <r>    -8.0590    17.9495    16.5959 </r>
       <r>    -7.9903    39.1032    19.2812 </r>
       <r>    -7.9216    49.4249    22.6753 </r>
       <r>    -7.8530    36.8851    25.2083 </r>
       <r>    -7.7843    19.8281    26.5700 </r>
       <r>    -7.7156    10.2231    27.2720 </r>
       <r>    -7.6469     9.9914    27.9582 </r>
       <r>    -7.5783    11.6718    28.7597 </r>
       <r>    -7.5096    13.6306    29.6958 </r>
       <r>    -7.4409    19.3122    31.0220 </r>
       <r>    -7.3722    28.8434    33.0027 </r>
       <r>    -7.3036    39.9794    35.7482 </r>
       <r>    -7.2349    37.4294    38.3186 </r>
       <r>    -7.1662    22.3440    39.8530 </r>
       <r>    -7.0976    19.1342    41.1670 </r>
       <r>    -7.0289    30.6549    43.2722 </r>
       <r>    -6.9602    42.5167    46.1919 </r>
       <r>    -6.8915    49.1482    49.5671 </r>
       <r>    -6.8229    48.1753    52.8754 </r>
       <r>    -6.7542    43.0080    55.8289 </r>
       <r>    -6.6855    33.6475    58.1396 </r>
       <r>    -6.6168    28.0955    60.0689 </r>
       <r>    -6.5482    28.1420    62.0015 </r>
       <r>    -6.4795    28.6369    63.9681 </r>
       <r>    -6.4108    23.7884    65.6017 </r>
       <r>    -6.3422    16.0028    66.7007 </r>
       <r>    -6.2735    17.9121    67.9308 </r>
       <r>    -6.2048    35.3148    70.3559 </r>
       <r>    -6.1361    49.3867    73.7475 </r>
       <r>    -6.0675    49.4995    77.1467 </r>
       <r>    -5.9988    45.5671    80.2759 </r>
       <r>    -5.9301    51.4401    83.8085 </r>
       <r>    -5.8614    70.8848    88.6763 </r>
       <r>    -5.7928    71.4492    93.5829 </r>
       <r>    -5.7241    50.2687    97.0350 </r>
       <r>    -5.6554    49.3068   100.4211 </r>
       <r>    -5.5868    65.8867   104.9457 </r>
       <r>    -5.5181    71.4993   109.8557 </r>
       <r>    -5.4494    81.2916   115.4383 </r>
       <r>    -5.3807    96.9854   122.0985 </r>
       <r>    -5.3121    80.0306   127.5944 </r>
       <r>    -5.2434    45.3075   130.7058 </r>
       <r>    -5.1747    40.8996   133.5145 </r>
       <r>    -5.1060    65.5813   138.0182 </r>
       <r>    -5.0374    81.6985   143.6286 </r>
       <r>    -4.9687    71.8744   148.5644 </r>
       <r>    -4.9000    74.2548   153.6637 </r>
       <r>    -4.8314   103.9586   160.8029 </r>
       <r>    -4.7627   113.1738   168.5748 </r>
       <r>    -4.6940    90.0779   174.7607 </r>
       <r>    -4.6253    75.3043   179.9321 </r>
       <r>    -4.5567    75.9238   185.1460 </r>
       <r>    -4.4880    65.4936   189.6436 </r>
       <r>    -4.4193    51.7988   193.2008 </r>
       <r>    -4.3506    63.4124   197.5555 </r>
       <r>    -4.2820    94.2595   204.0285 </r>
       <r>    -4.2133   114.7545   211.9090 </r>
       <r>    -4.1446   107.0872   219.2630 </r>
       <r>    -4.0760    95.7705   225.8398 </r>
       <r>    -4.0073   107.3690   233.2132 </r>
       <r>    -3.9386   118.6440   241.3608 </r>
       <r>    -3.8699   112.4925   249.0859 </r>
       <r>    -3.8013   112.8863   256.8382 </r>
       <r>    -3.7326   129.0505   265.7004 </r>
       <r>    -3.6639   135.0654   274.9757 </r>
       <r>    -3.5952   102.9686   282.0469 </r>
       <r>    -3.5266    70.6902   286.9014 </r>
       <r>    -3.4579    57.9891   290.8836 </r>
       <r>    -3.3892    44.1901   293.9183 </r>
       <r>    -3.3206    31.2640   296.0653 </r>
       <r>    -3.2519    24.0762   297.7187 </r>
       <r>    -3.1832    18.5542   298.9928 </r>
       <r>    -3.1145    17.6281   300.2034 </r>
       <r>    -3.0459    18.3884   301.4662 </r>
       <r>    -2.9772    14.4011   302.4551 </r>
       <r>    -2.9085     6.7010   302.9153 </r>
       <r>    -2.8398     3.1012   303.1283 </r>
       <r>    -2.7712     5.3240   303.4939 </r>
       <r>    -2.7025     8.4103   304.0715 </r>
       <r>    -2.6338    10.5147   304.7935 </r>
       <r>    -2.5652    12.8886   305.6786 </r>
       <r>    -2.4965    12.8037   306.5579 </r>
       <r>    -2.4278     9.8010   307.2310 </r>
       <r>    -2.3591     8.9918   307.8485 </r>
       <r>    -2.2905    10.0738   308.5402 </r>
       <r>    -2.2218    12.2595   309.3821 </r>
       <r>    -2.1531    14.6304   310.3868 </r>
       <r>    -2.0844    16.6863   311.5327 </r>
       <r>    -2.0158    21.8015   313.0299 </r>
       <r>    -1.9471    22.0477   314.5440 </r>
       <r>    -1.8784    14.0200   315.5068 </r>
       <r>    -1.8098     5.7218   315.8997 </r>
       <r>    -1.7411     1.5766   316.0080 </r>
       <r>    -1.6724     1.8131   316.1325 </r>
       <r>    -1.6037     4.5370   316.4441 </r>
       <r>    -1.5351     5.2188   316.8025 </r>
       <r>    -1.4664     3.3501   317.0325 </r>
       <r>    -1.3977     4.9637   317.3734 </r>
       <r>    -1.3290     9.9166   318.0544 </r>
       <r>    -1.2604    11.3629   318.8347 </r>
       <r>    -1.1917    12.9946   319.7271 </r>
       <r>    -1.1230    19.4564   321.0632 </r>
       <r>    -1.0544    19.0481   322.3713 </r>
       <r>    -0.9857    11.6667   323.1725 </r>
       <r>    -0.9170    10.2705   323.8778 </r>
       <r>    -0.8483    15.7291   324.9580 </r>
       <r>    -0.7797    22.0119   326.4696 </r>
       <r>    -0.7110    25.2205   328.2015 </r>
       <r>    -0.6423    31.2192   330.3454 </r>
       <r>    -0.5736    34.5792   332.7201 </r>
       <r>    -0.5050    24.9230   334.4316 </r>
       <r>    -0.4363    14.6390   335.4369 </r>
       <r>    -0.3676    12.0133   336.2619 </r>
       <r>    -0.2990     7.8795   336.8030 </r>
       <r>    -0.2303     2.5006   336.9747 </r>
       <r>    -0.1616     0.3468   336.9986 </r>
       <r>    -0.0929     0.0205   337.0000 </r>
       <r>    -0.0243     0.0035   337.0002 </r>
       <r>     0.0444     0.0736   337.0053 </r>
       <r>     0.1131     0.7565   337.0572 </r>
       <r>     0.1818     3.4124   337.2916 </r>
       <r>     0.2504     8.2621   337.8589 </r>
       <r>     0.3191    16.2617   338.9757 </r>
       <r>     0.3878    27.4109   340.8581 </r>
       <r>     0.4564    29.3417   342.8730 </r>
       <r>     0.5251    21.2504   344.3324 </r>
       <r>     0.5938    15.6705   345.4085 </r>
       <r>     0.6625    11.6795   346.2106 </r>
       <r>     0.7311     7.6410   346.7353 </r>
       <r>     0.7998     5.1608   347.0897 </r>
       <r>     0.8685     9.0186   347.7090 </r>
       <r>     0.9372    19.3627   349.0387 </r>
       <r>     1.0058    27.1885   350.9058 </r>
       <r>     1.0745    25.5404   352.6598 </r>
       <r>     1.1432    23.7504   354.2908 </r>
       <r>     1.2118    35.0483   356.6976 </r>
       <r>     1.2805    48.3362   360.0170 </r>
       <r>     1.3492    44.8814   363.0991 </r>
       <r>     1.4179    34.4183   365.4627 </r>
       <r>     1.4865    33.0115   367.7297 </r>
       <r>     1.5552    34.8768   370.1248 </r>
       <r>     1.6239    34.4466   372.4903 </r>
       <r>     1.6926    35.3334   374.9168 </r>
       <r>     1.7612    35.4865   377.3537 </r>
       <r>     1.8299    25.9065   379.1328 </r>
       <r>     1.8986    10.4399   379.8498 </r>
       <r>     1.9672     2.0087   379.9877 </r>
       <r>     2.0359     0.1726   379.9996 </r>
       <r>     2.1046     0.0064   380.0000 </r>
       <r>     2.1733     0.0001   380.0000 </r>
       <r>     2.2419     0.0000   380.0000 </r>
       <r>     2.3106     0.0000   380.0000 </r>
       <r>     2.3793     0.0000   380.0000 </r>
       <r>     2.4480     0.0000   380.0000 </r>
       <r>     2.5166     0.0000   380.0000 </r>
       <r>     2.5853     0.0000   380.0000 </r>
       <r>     2.6540     0.0000   380.0000 </r>
       <r>     2.7226     0.0000   380.0000 </r>
       <r>     2.7913     0.0000   380.0000 </r>
      </set>
     </set>
    </array>
   </total>
  </dos>
 </calculation>
 <structure name="finalpos" >
  <crystal>
   <varray name="basis" >
    <v>      20.00000000       0.00000000       0.00000000 </v>
    <v>       0.00000000      20.00000000       0.00000000 </v>
    <v>       0.00000000       0.00000000      20.00000000 </v>
   </varray>
   <i name="volume">   8000.00000000 </i>
   <varray name="rec_basis" >
    <v>       0.05000000       0.00000000       0.00000000 </v>
    <v>       0.00000000       0.05000000       0.00000000 </v>
    <v>       0.00000000       0.00000000       0.05000000 </v>
   </varray>
  </crystal>
  <varray name="positions" >
   <v>       0.34990766       0.59608202       0.41027420 </v>
   <v>       0.45128849       0.66315330       0.37765323 </v>
   <v>       0.41172168       0.66280261       0.49708705 </v>
   <v>       0.51273817       0.72356208       0.46454192 </v>
   <v>       0.51458150       0.60860195       0.46450489 </v>
   <v>       0.57695893       0.66508225       0.37793327 </v>
   <v>       0.61554668       0.66531054       0.49706306 </v>
   <v>       0.31668456       0.59258437       0.52810787 </v>
   <v>       0.35104726       0.48800114       0.58243504 </v>
   <v>       0.41496896       0.54264351       0.49641684 </v>
   <v>       0.41249642       0.59596369       0.60469712 </v>
   <v>       0.51353966       0.66350059       0.57133430 </v>
   <v>       0.51441786       0.54291456       0.57044685 </v>
   <v>       0.61525399       0.54456776       0.49701638 </v>
   <v>       0.61587469       0.59871795       0.60449143 </v>
   <v>       0.39265435       0.59383610       0.29557743 </v>
   <v>       0.35185429       0.48906176       0.34425259 </v>
   <v>       0.45397470       0.49101838       0.27004978 </v>
   <v>       0.45349737       0.54268720       0.37892102 </v>
   <v>       0.51517609       0.59793502       0.29096653 </v>
   <v>       0.51651435       0.43846561       0.35878223 </v>
   <v>       0.57910395       0.49230602       0.27062278 </v>
   <v>       0.57750422       0.54451845       0.37931926 </v>
   <v>       0.31245958       0.48786041       0.46410810 </v>
   <v>       0.35169206       0.38119330       0.51722041 </v>
   <v>       0.41619880       0.43660352       0.43253277 </v>
   <v>       0.45493831       0.43737394       0.55005254 </v>
   <v>       0.51581996       0.49066520       0.46467341 </v>
   <v>       0.51762688       0.37282599       0.46368385 </v>
   <v>       0.61692253       0.43948815       0.43178498 </v>
   <v>       0.57788699       0.43811133       0.55014294 </v>
   <v>       0.67955595       0.60002730       0.41106690 </v>
   <v>       0.71210933       0.59685124       0.52908754 </v>
   <v>       0.68020152       0.49233461       0.58390690 </v>
   <v>       0.63736185       0.59681316       0.29618357 </v>
   <v>       0.68092732       0.49312034       0.34459013 </v>
   <v>       0.71958509       0.49335658       0.46395191 </v>
   <v>       0.68162706       0.38570541       0.51766538 </v>
   <v>       0.45240456       0.49157754       0.66332228 </v>
   <v>       0.51441209       0.59642614       0.67247742 </v>
   <v>       0.57972658       0.49199415       0.65734298 </v>
   <v>       0.39285405       0.38387483       0.63290237 </v>
   <v>       0.45433106       0.31727684       0.54950045 </v>
   <v>       0.51932228       0.38094781       0.64188802 </v>
   <v>       0.58051661       0.31812489       0.55099209 </v>
   <v>       0.64095419       0.38709827       0.63195644 </v>
   <v>       0.41573051       0.38317549       0.32369215 </v>
   <v>       0.51737029       0.38730205       0.25564944 </v>
   <v>       0.61906082       0.38560113       0.32396121 </v>
   <v>       0.31950221       0.38472182       0.39810505 </v>
   <v>       0.41603022       0.31663212       0.43103679 </v>
   <v>       0.51807354       0.31783984       0.35649001 </v>
   <v>       0.61980645       0.31887205       0.43047163 </v>
   <v>       0.71524466       0.38914980       0.39987143 </v>
   <v>       0.51901727       0.25806206       0.46347979 </v>
   <v>       0.44983362       0.40103578       0.72218398 </v>
  </varray>
 </structure>
</modeling>
