1x1_001_aAl2O3                          
           1
    20.000000    0.000000    0.000000
     0.000000   20.000000    0.000000
     0.000000    0.000000   20.000000
   Ni   S 
  55   1
Direct configuration=     1
   0.34999999  0.59609997  0.41023001
   0.45111999  0.66298002  0.37739000
   0.41144001  0.66333997  0.49592999
   0.51289999  0.72356999  0.46397001
   0.51455998  0.60857999  0.46454999
   0.57696998  0.66512001  0.37803999
   0.61531001  0.66529000  0.49739999
   0.31621998  0.59328002  0.52759999
   0.35165000  0.48844001  0.58240998
   0.41481999  0.54310000  0.49675000
   0.41226000  0.59715998  0.60433000
   0.51300001  0.66443002  0.57078999
   0.51393002  0.54326999  0.57043999
   0.61514002  0.54430997  0.49803001
   0.61504000  0.59938997  0.60447001
   0.39269999  0.59319001  0.29561001
   0.35174000  0.48896000  0.34492999
   0.45374000  0.49070001  0.27023000
   0.45361000  0.54241002  0.37911001
   0.51520002  0.59798002  0.29126000
   0.51659000  0.43858001  0.35894001
   0.57914001  0.49233002  0.27079999
   0.57756001  0.54448003  0.37959999
   0.31229001  0.48839000  0.46421999
   0.35187000  0.38130999  0.51739001
   0.41624001  0.43660000  0.43307000
   0.45506999  0.43731001  0.55010003
   0.51587999  0.49059999  0.46496999
   0.51804000  0.37242001  0.46355999
   0.61691999  0.43946001  0.43193999
   0.57789999  0.43765000  0.55014002
   0.67907000  0.59966999  0.41204000
   0.71208000  0.59684998  0.52977002
   0.68033999  0.49168000  0.58374000
   0.63770002  0.59675997  0.29679000
   0.68107003  0.49320999  0.34472001
   0.71951002  0.49331000  0.46399999
   0.68197000  0.38521001  0.51692998
   0.45265999  0.49094000  0.66323000
   0.51353002  0.59705001  0.67210001
   0.57927000  0.49200001  0.65692002
   0.39315000  0.38383001  0.63277000
   0.45515999  0.31744999  0.54939002
   0.51909000  0.38150001  0.64209998
   0.58157003  0.31762001  0.55027002
   0.64121002  0.38648999  0.63142002
   0.41586000  0.38284001  0.32444999
   0.51719999  0.38745001  0.25582999
   0.61895001  0.38558999  0.32365999
   0.31948999  0.38475001  0.39871001
   0.41635999  0.31641999  0.43090999
   0.51840001  0.31786001  0.35631999
   0.62011999  0.31862000  0.42938000
   0.71500999  0.38927999  0.39916000
   0.51953000  0.25764999  0.46280000
   0.44926000  0.40059999  0.72285998
Direct configuration=     2
   0.34998344  0.59610511  0.41021052
   0.45113929  0.66298336  0.37739340
   0.41143823  0.66332672  0.49599068
   0.51288783  0.72358516  0.46397381
   0.51455704  0.60858775  0.46452867
   0.57696566  0.66510905  0.37802955
   0.61533651  0.66529415  0.49738833
   0.31625508  0.59325693  0.52764338
   0.35160106  0.48843831  0.58242503
   0.41484758  0.54307318  0.49669796
   0.41224887  0.59711003  0.60433107
   0.51300924  0.66439550  0.57082820
   0.51395264  0.54326328  0.57046538
   0.61513148  0.54431189  0.49796964
   0.61508488  0.59935777  0.60448436
   0.39269074  0.59322424  0.29560707
   0.35175245  0.48895280  0.34489678
   0.45375396  0.49070498  0.27023493
   0.45360292  0.54242339  0.37910618
   0.51521345  0.59796951  0.29125811
   0.51657916  0.43856596  0.35894912
   0.57914178  0.49233715  0.27080529
   0.57755647  0.54446416  0.37960959
   0.31230424  0.48835836  0.46421635
   0.35186507  0.38129968  0.51739497
   0.41623864  0.43659509  0.43304017
   0.45507800  0.43731229  0.55006217
   0.51587377  0.49059588  0.46496172
   0.51802866  0.37247887  0.46355593
   0.61692220  0.43946979  0.43190471
   0.57791419  0.43764672  0.55014105
   0.67910585  0.59968782  0.41199008
   0.71205607  0.59683826  0.52975685
   0.68033443  0.49171493  0.58375802
   0.63768630  0.59677006  0.29676759
   0.68104287  0.49319994  0.34472203
   0.71951821  0.49331131  0.46399534
   0.68195635  0.38522736  0.51695665
   0.45263192  0.49100957  0.66326472
   0.51355957  0.59701657  0.67210774
   0.57931005  0.49201746  0.65692465
   0.39312742  0.38380838  0.63281384
   0.45513666  0.31742561  0.54938755
   0.51911762  0.38142905  0.64211952
   0.58151332  0.31764277  0.55027826
   0.64117991  0.38652181  0.63144617
   0.41586189  0.38287632  0.32442505
   0.51720382  0.38743823  0.25580923
   0.61895349  0.38561217  0.32367360
   0.31948639  0.38475068  0.39868944
   0.41635332  0.31642758  0.43092654
   0.51838305  0.31784858  0.35631528
   0.62010627  0.31861676  0.42943232
   0.71503406  0.38927465  0.39918027
   0.51951631  0.25767670  0.46284782
   0.44928044  0.40062035  0.72277725
Direct configuration=     3
   0.34993377  0.59612052  0.41015206
   0.45119718  0.66299338  0.37740361
   0.41143287  0.66328696  0.49617275
   0.51285132  0.72363069  0.46398523
   0.51454819  0.60861101  0.46446470
   0.57695269  0.66507617  0.37799825
   0.61541599  0.66530659  0.49735338
   0.31636037  0.59318767  0.52777356
   0.35145424  0.48843321  0.58247020
   0.41493035  0.54299272  0.49654187
   0.41221550  0.59696016  0.60433426
   0.51303693  0.66429192  0.57094282
   0.51402051  0.54324314  0.57054156
   0.61510584  0.54431762  0.49778853
   0.61521952  0.59926115  0.60452740
   0.39266300  0.59332691  0.29559827
   0.35178978  0.48893120  0.34479716
   0.45379582  0.49071991  0.27024972
   0.45358168  0.54246352  0.37909471
   0.51525375  0.59793796  0.29125243
   0.51654664  0.43852382  0.35897647
   0.57914710  0.49235854  0.27082118
   0.57754587  0.54441655  0.37963839
   0.31234691  0.48826344  0.46420546
   0.35185028  0.38126878  0.51740984
   0.41623455  0.43658035  0.43295066
   0.45510203  0.43731913  0.54994859
   0.51585512  0.49058353  0.46493692
   0.51799465  0.37265545  0.46354376
   0.61692883  0.43949913  0.43179886
   0.57795677  0.43763689  0.55014412
   0.67921340  0.59974129  0.41184032
   0.71198425  0.59680311  0.52971735
   0.68031775  0.49181974  0.58381208
   0.63764514  0.59680033  0.29670033
   0.68096137  0.49316980  0.34472809
   0.71954276  0.49331522  0.46398141
   0.68191539  0.38527940  0.51703665
   0.45254770  0.49121825  0.66336887
   0.51364822  0.59691625  0.67213094
   0.57943017  0.49206981  0.65693855
   0.39305966  0.38374350  0.63294535
   0.45506668  0.31735249  0.54938016
   0.51920050  0.38121618  0.64217815
   0.58134321  0.31771105  0.55030298
   0.64108957  0.38661728  0.63152464
   0.41586756  0.38298526  0.32435022
   0.51721530  0.38740288  0.25574695
   0.61896392  0.38567873  0.32371443
   0.31947559  0.38475271  0.39862771
   0.41633330  0.31645037  0.43097617
   0.51833217  0.31781431  0.35630115
   0.62006513  0.31860705  0.42958927
   0.71510629  0.38925862  0.39924110
   0.51947523  0.25775684  0.46299131
   0.44934176  0.40068145  0.72252905
Direct configuration=     4
   0.34983444  0.59615133  0.41003514
   0.45131296  0.66301342  0.37742403
   0.41142215  0.66320745  0.49653690
   0.51277830  0.72372173  0.46400806
   0.51453050  0.60865754  0.46433677
   0.57692675  0.66501043  0.37793565
   0.61557495  0.66533148  0.49728346
   0.31657094  0.59304914  0.52803392
   0.35116061  0.48842301  0.58256054
   0.41509589  0.54283180  0.49622967
   0.41214877  0.59666042  0.60434066
   0.51309232  0.66408478  0.57117207
   0.51415624  0.54320285  0.57069390
   0.61505456  0.54432909  0.49742631
   0.61548880  0.59906793  0.60461347
   0.39260751  0.59353226  0.29558065
   0.35186444  0.48888801  0.34459790
   0.45387955  0.49074977  0.27027931
   0.45353920  0.54254376  0.37907176
   0.51533436  0.59787486  0.29124106
   0.51648160  0.43843955  0.35903117
   0.57915774  0.49240134  0.27085297
   0.57752466  0.54432133  0.37969598
   0.31243224  0.48807361  0.46418366
   0.35182070  0.38120697  0.51743957
   0.41622636  0.43655087  0.43277166
   0.45515008  0.43733281  0.54972142
   0.51581782  0.49055885  0.46488730
   0.51792662  0.37300861  0.46351942
   0.61694208  0.43955780  0.43158717
   0.57804194  0.43761722  0.55015026
   0.67942852  0.59984824  0.41154080
   0.71184063  0.59673281  0.52963835
   0.68028438  0.49202936  0.58392021
   0.63756281  0.59686087  0.29656583
   0.68079838  0.49310951  0.34474021
   0.71959188  0.49332305  0.46395355
   0.68183347  0.38538350  0.51719665
   0.45237926  0.49163562  0.66357717
   0.51382553  0.59671560  0.67217733
   0.57967043  0.49217451  0.65696636
   0.39292415  0.38361373  0.63320838
   0.45492671  0.31720624  0.54936537
   0.51936626  0.38079045  0.64229540
   0.58100299  0.31784761  0.55035241
   0.64090889  0.38680823  0.63168158
   0.41587891  0.38320315  0.32420058
   0.51723826  0.38733218  0.25562240
   0.61898479  0.38581185  0.32379610
   0.31945399  0.38475677  0.39850426
   0.41629326  0.31649594  0.43107545
   0.51823040  0.31774577  0.35627287
   0.61998284  0.31858763  0.42990318
   0.71525074  0.38922657  0.39936276
   0.51939309  0.25791712  0.46327828
   0.44946440  0.40080364  0.72203265
Direct configuration=     5
   0.34987866  0.59613761  0.41008719
   0.45126142  0.66300450  0.37741494
   0.41142692  0.66324284  0.49637480
   0.51281080  0.72368120  0.46399789
   0.51453837  0.60863683  0.46439372
   0.57693830  0.66503969  0.37796352
   0.61550419  0.66532040  0.49731459
   0.31647721  0.59311081  0.52791802
   0.35129132  0.48842755  0.58252032
   0.41502220  0.54290343  0.49636865
   0.41217848  0.59679385  0.60433781
   0.51306766  0.66417699  0.57107002
   0.51409582  0.54322078  0.57062608
   0.61507739  0.54432398  0.49758755
   0.61536893  0.59915394  0.60457515
   0.39263221  0.59344085  0.29558849
   0.35183121  0.48890723  0.34468660
   0.45384228  0.49073648  0.27026614
   0.45355811  0.54250804  0.37908197
   0.51529848  0.59790295  0.29124612
   0.51651055  0.43847706  0.35900682
   0.57915300  0.49238229  0.27083882
   0.57753410  0.54436371  0.37967035
   0.31239426  0.48815811  0.46419337
   0.35183387  0.38123448  0.51742634
   0.41623000  0.43656399  0.43285134
   0.45512869  0.43732672  0.54982254
   0.51583442  0.49056984  0.46490939
   0.51795690  0.37285140  0.46353025
   0.61693618  0.43953168  0.43168141
   0.57800403  0.43762598  0.55014752
   0.67933276  0.59980064  0.41167413
   0.71190457  0.59676410  0.52967351
   0.68029923  0.49193605  0.58387208
   0.63759946  0.59683392  0.29662570
   0.68087094  0.49313635  0.34473481
   0.71957002  0.49331956  0.46396595
   0.68186994  0.38533716  0.51712543
   0.45245424  0.49144983  0.66348445
   0.51374660  0.59680492  0.67215668
   0.57956348  0.49212791  0.65695398
   0.39298447  0.38367150  0.63309130
   0.45498901  0.31727135  0.54937195
   0.51929247  0.38097996  0.64224320
   0.58115444  0.31778682  0.55033040
   0.64098932  0.38672323  0.63161172
   0.41587386  0.38310616  0.32426719
   0.51722804  0.38736365  0.25567785
   0.61897550  0.38575259  0.32375974
   0.31946361  0.38475496  0.39855921
   0.41631108  0.31647566  0.43103126
   0.51827570  0.31777628  0.35628546
   0.62001947  0.31859627  0.42976345
   0.71518644  0.38924084  0.39930860
   0.51942965  0.25784577  0.46315054
   0.44940980  0.40074925  0.72225362
Direct configuration=     6
   0.34985199  0.59613374  0.41009720
   0.45128794  0.66303454  0.37743552
   0.41146631  0.66317825  0.49652130
   0.51278474  0.72367230  0.46405150
   0.51454985  0.60868532  0.46442484
   0.57694172  0.66502151  0.37794680
   0.61551964  0.66531027  0.49727214
   0.31657395  0.59301892  0.52796638
   0.35124420  0.48836353  0.58252239
   0.41499264  0.54287377  0.49633986
   0.41218018  0.59666163  0.60435795
   0.51312102  0.66406272  0.57111705
   0.51414672  0.54316502  0.57056650
   0.61510400  0.54436792  0.49748554
   0.61547716  0.59907247  0.60457612
   0.39263322  0.59350361  0.29558592
   0.35184748  0.48892189  0.34459491
   0.45387713  0.49077124  0.27026049
   0.45352617  0.54255070  0.37902142
   0.51530123  0.59787881  0.29122805
   0.51650041  0.43844223  0.35893861
   0.57914033  0.49238702  0.27083230
   0.57753295  0.54439435  0.37961560
   0.31243252  0.48809768  0.46419639
   0.35184101  0.38122273  0.51744172
   0.41619118  0.43654313  0.43276969
   0.45501880  0.43727348  0.54995982
   0.51587398  0.49063584  0.46488326
   0.51792473  0.37281890  0.46351941
   0.61697135  0.43950344  0.43166833
   0.57798339  0.43770143  0.55013950
   0.67940475  0.59983811  0.41154776
   0.71187735  0.59674506  0.52960166
   0.68028222  0.49202597  0.58389069
   0.63754878  0.59683900  0.29657931
   0.68085340  0.49313048  0.34471149
   0.71957265  0.49332165  0.46396556
   0.68183305  0.38539907  0.51719418
   0.45240188  0.49156661  0.66348240
   0.51384323  0.59675682  0.67223676
   0.57963194  0.49212739  0.65700295
   0.39292330  0.38368838  0.63296467
   0.45488812  0.31726519  0.54939519
   0.51936561  0.38088312  0.64217988
   0.58102505  0.31782724  0.55039534
   0.64095883  0.38678767  0.63169628
   0.41586680  0.38314807  0.32416902
   0.51724735  0.38735382  0.25567197
   0.61898431  0.38575774  0.32379010
   0.31946456  0.38474797  0.39850130
   0.41628801  0.31651034  0.43107146
   0.51823863  0.31777051  0.35630288
   0.61998326  0.31864253  0.42990146
   0.71521657  0.38922891  0.39939180
   0.51937792  0.25792601  0.46323129
   0.44949459  0.40080391  0.72225804
Direct configuration=     7
   0.34981895  0.59612893  0.41010961
   0.45132079  0.66307175  0.37746100
   0.41151510  0.66309823  0.49670278
   0.51275245  0.72366127  0.46411791
   0.51456406  0.60874539  0.46446341
   0.57694596  0.66499899  0.37792609
   0.61553879  0.66529773  0.49721956
   0.31669380  0.59290510  0.52802628
   0.35118583  0.48828422  0.58252495
   0.41495603  0.54283703  0.49630420
   0.41218229  0.59649784  0.60438289
   0.51318712  0.66392118  0.57117531
   0.51420977  0.54309593  0.57049268
   0.61513696  0.54442235  0.49735918
   0.61561123  0.59897155  0.60457732
   0.39263448  0.59358136  0.29558273
   0.35186765  0.48894005  0.34448133
   0.45392031  0.49081431  0.27025350
   0.45348660  0.54260354  0.37894641
   0.51530464  0.59784891  0.29120567
   0.51648785  0.43839908  0.35885412
   0.57912462  0.49239288  0.27082422
   0.57753153  0.54443229  0.37954777
   0.31247992  0.48802281  0.46420013
   0.35184986  0.38120816  0.51746077
   0.41614309  0.43651729  0.43266854
   0.45488268  0.43720752  0.55012988
   0.51592299  0.49071760  0.46485089
   0.51788487  0.37277864  0.46350598
   0.61701491  0.43946845  0.43165213
   0.57795782  0.43779490  0.55012956
   0.67949394  0.59988454  0.41139122
   0.71184363  0.59672146  0.52951264
   0.68026114  0.49213737  0.58391374
   0.63748600  0.59684530  0.29652184
   0.68083167  0.49312322  0.34468261
   0.71957590  0.49332423  0.46396508
   0.68178735  0.38547577  0.51727935
   0.45233701  0.49171128  0.66347985
   0.51396292  0.59669725  0.67233596
   0.57971675  0.49212674  0.65706361
   0.39284752  0.38370928  0.63280780
   0.45476313  0.31725756  0.54942397
   0.51945621  0.38076316  0.64210143
   0.58086476  0.31787731  0.55047577
   0.64092107  0.38686750  0.63180104
   0.41585806  0.38319998  0.32404742
   0.51727127  0.38734165  0.25566470
   0.61899522  0.38576411  0.32382771
   0.31946575  0.38473930  0.39842956
   0.41625942  0.31655330  0.43112125
   0.51819270  0.31776337  0.35632447
   0.61993840  0.31869984  0.43007242
   0.71525390  0.38921413  0.39949485
   0.51931382  0.25802541  0.46333133
   0.44959962  0.40087163  0.72226353
Direct configuration=     8
   0.34982777  0.59612099  0.41014775
   0.45131574  0.66310431  0.37750486
   0.41157639  0.66302789  0.49680689
   0.51274369  0.72363361  0.46422026
   0.51457154  0.60872978  0.46449570
   0.57695421  0.66502009  0.37792690
   0.61553574  0.66529305  0.49717327
   0.31670515  0.59282016  0.52804677
   0.35115706  0.48820861  0.58250557
   0.41496149  0.54278117  0.49632984
   0.41225894  0.59635159  0.60446007
   0.51328177  0.66380015  0.57120708
   0.51425090  0.54304021  0.57045726
   0.61519137  0.54447280  0.49727436
   0.61568357  0.59890530  0.60456002
   0.39263783  0.59364702  0.29557619
   0.35185961  0.48897989  0.34440623
   0.45393719  0.49087009  0.27019721
   0.45349166  0.54262053  0.37894483
   0.51526860  0.59786102  0.29114290
   0.51649332  0.43841756  0.35885079
   0.57911423  0.49237611  0.27077145
   0.57752829  0.54447022  0.37948151
   0.31247703  0.48797498  0.46418320
   0.35180639  0.38119492  0.51741008
   0.41619593  0.43655301  0.43265493
   0.45489517  0.43726080  0.55014065
   0.51584618  0.49066961  0.46480399
   0.51781996  0.37281034  0.46353419
   0.61700207  0.43945580  0.43169742
   0.57791299  0.43789775  0.55010862
   0.67951721  0.59992433  0.41130585
   0.71189772  0.59674913  0.52940631
   0.68024583  0.49219659  0.58391537
   0.63745227  0.59684077  0.29643966
   0.68086574  0.49312632  0.34464874
   0.71957516  0.49332999  0.46396824
   0.68174851  0.38553785  0.51736935
   0.45233501  0.49167247  0.66344935
   0.51407654  0.59664051  0.67238650
   0.57972788  0.49209455  0.65714285
   0.39284727  0.38375771  0.63280873
   0.45464769  0.31725821  0.54945472
   0.51942180  0.38079048  0.64204822
   0.58077095  0.31792741  0.55061790
   0.64093379  0.38691877  0.63185265
   0.41581962  0.38318673  0.32394085
   0.51730092  0.38733030  0.25565384
   0.61901656  0.38571697  0.32385757
   0.31946411  0.38472319  0.39834996
   0.41620392  0.31657402  0.43111180
   0.51816269  0.31777282  0.35635956
   0.61990736  0.31875609  0.43018328
   0.71525808  0.38919641  0.39959569
   0.51923450  0.25803276  0.46336991
   0.44967718  0.40093627  0.72221226
Direct configuration=     9
   0.34984227  0.59610795  0.41021038
   0.45130745  0.66315779  0.37757689
   0.41167705  0.66291237  0.49697788
   0.51272931  0.72358819  0.46438835
   0.51458381  0.60870415  0.46454872
   0.57696775  0.66505474  0.37792824
   0.61553075  0.66528536  0.49709726
   0.31672378  0.59268068  0.52808043
   0.35110982  0.48808444  0.58247375
   0.41497046  0.54268943  0.49637196
   0.41238481  0.59611141  0.60458680
   0.51343722  0.66360140  0.57125925
   0.51431844  0.54294871  0.57039910
   0.61528070  0.54455564  0.49713507
   0.61580238  0.59879651  0.60453161
   0.39264332  0.59375485  0.29556545
   0.35184641  0.48904532  0.34428289
   0.45396491  0.49096170  0.27010476
   0.45349998  0.54264843  0.37894222
   0.51520942  0.59788090  0.29103984
   0.51650230  0.43844790  0.35884531
   0.57909715  0.49234856  0.27068479
   0.57752298  0.54453250  0.37937269
   0.31247228  0.48789642  0.46415540
   0.35173499  0.38117317  0.51732684
   0.41628270  0.43661167  0.43263257
   0.45491568  0.43734829  0.55015835
   0.51572006  0.49059081  0.46472698
   0.51771338  0.37286239  0.46358051
   0.61698099  0.43943503  0.43177179
   0.57783936  0.43806665  0.55007425
   0.67955542  0.59998965  0.41116565
   0.71198653  0.59679457  0.52923168
   0.68022069  0.49229382  0.58391804
   0.63739689  0.59683333  0.29630470
   0.68092168  0.49313142  0.34459313
   0.71957394  0.49333944  0.46397342
   0.68168473  0.38563978  0.51751714
   0.45233172  0.49160874  0.66339925
   0.51426314  0.59654733  0.67246950
   0.57974615  0.49204167  0.65727296
   0.39284685  0.38383724  0.63281026
   0.45445813  0.31725929  0.54950521
   0.51936530  0.38083536  0.64196084
   0.58061689  0.31800968  0.55085131
   0.64095469  0.38700296  0.63193742
   0.41575651  0.38316496  0.32376584
   0.51734960  0.38731166  0.25563600
   0.61905161  0.38563957  0.32390659
   0.31946141  0.38469672  0.39821924
   0.41611278  0.31660805  0.43109627
   0.51811340  0.31778833  0.35641720
   0.61985637  0.31884847  0.43036533
   0.71526496  0.38916732  0.39976128
   0.51910423  0.25804482  0.46343326
   0.44980455  0.40104243  0.72212806
Direct configuration=    10
   0.34990766  0.59608202  0.41027420
   0.45128849  0.66315330  0.37765323
   0.41172168  0.66280261  0.49708705
   0.51273817  0.72356208  0.46454192
   0.51458150  0.60860195  0.46450489
   0.57695893  0.66508225  0.37793327
   0.61554668  0.66531054  0.49706306
   0.31668456  0.59258437  0.52810787
   0.35104726  0.48800114  0.58243504
   0.41496896  0.54264351  0.49641684
   0.41249642  0.59596369  0.60469712
   0.51353966  0.66350059  0.57133430
   0.51441786  0.54291456  0.57044685
   0.61525399  0.54456776  0.49701638
   0.61587469  0.59871795  0.60449143
   0.39265435  0.59383610  0.29557743
   0.35185429  0.48906176  0.34425259
   0.45397470  0.49101838  0.27004978
   0.45349737  0.54268720  0.37892102
   0.51517609  0.59793502  0.29096653
   0.51651435  0.43846561  0.35878223
   0.57910395  0.49230602  0.27062278
   0.57750422  0.54451845  0.37931926
   0.31245958  0.48786041  0.46410810
   0.35169206  0.38119330  0.51722041
   0.41619880  0.43660352  0.43253277
   0.45493831  0.43737394  0.55005254
   0.51581996  0.49066520  0.46467341
   0.51762688  0.37282599  0.46368385
   0.61692253  0.43948815  0.43178498
   0.57788699  0.43811133  0.55014294
   0.67955595  0.60002730  0.41106690
   0.71210933  0.59685124  0.52908754
   0.68020152  0.49233461  0.58390690
   0.63736185  0.59681316  0.29618357
   0.68092732  0.49312034  0.34459013
   0.71958509  0.49335658  0.46395191
   0.68162706  0.38570541  0.51766538
   0.45240456  0.49157754  0.66332228
   0.51441209  0.59642614  0.67247742
   0.57972658  0.49199415  0.65734298
   0.39285405  0.38387483  0.63290237
   0.45433106  0.31727684  0.54950045
   0.51932228  0.38094781  0.64188802
   0.58051661  0.31812489  0.55099209
   0.64095419  0.38709827  0.63195644
   0.41573051  0.38317549  0.32369215
   0.51737029  0.38730205  0.25564944
   0.61906082  0.38560113  0.32396121
   0.31950221  0.38472182  0.39810505
   0.41603022  0.31663212  0.43103679
   0.51807354  0.31783984  0.35649001
   0.61980645  0.31887205  0.43047163
   0.71524466  0.38914980  0.39987143
   0.51901727  0.25806206  0.46347979
   0.44983362  0.40103578  0.72218398
