 vasp.6.3.2 27Jun22 (build Aug 05 2024 15:42:26) complex                        
  
 executed on             LinuxIFC date 2025.06.04  20:33:56
 running  294 mpi-ranks, with    1 threads/rank
 each image running on   42 cores
 distrk:  each k-point on   42 cores,    1 groups
 distr:  one band on NCORE=   1 cores,   42 groups


--------------------------------------------------------------------------------------------------------


 INCAR:
   ADDGRID = True
   ALGO = Fast
   EDIFF = 1e-06
   EDIFFG = -0.05
   ENCUT = 520.0
   IBRION = 1
   ISIF = 2
   ISMEAR = 0
   ISPIN = 2
   ISYM = 0
   LASPH = True
   LDAU = True
   LDAUJ = 0 0 0 0
   LDAUL = 0 0 2 0
   LDAUPRINT = 1
   LDAUTYPE = 2
   LDAUU = 0 0 4.38 0
   LMAXMIX = 4
   LORBIT = 11
   LREAL = False
   LWAVE = False
   MAGMOM = 93*0.6
   NELM = 100
   NELMIN = 3
   NSW = 450
   POTIM = 0.2
   PREC = Accurate
   SIGMA = 0.05
   IMAGES = 7
   SPRING = -5.0
   ICHAIN = 0
   LCLIMB = .TRUE.
   LNEBCELL = .FALSE.
   IOPT = 3

 POTCAR:   PAW_PBE Li_sv 23Jan2001                
 POTCAR:   PAW_PBE Nb_pv 08Apr2002                
 POTCAR:   PAW_PBE Mo_pv 08Apr2002                
 POTCAR:   PAW_PBE O 08Apr2002                    
 POTCAR:   PAW_PBE Li_sv 23Jan2001                
   VRHFIN =Li: 1s2s2p                                                                               
   LEXCH  = PE                                                                                      
   EATOM  =   202.7858 eV,   14.9043 Ry                                                             
                                                                                                    
   TITEL  = PAW_PBE Li_sv 23Jan2001                                                                 
   LULTRA =        F    use ultrasoft PP ?                                                          
   IUNSCR =        0    unscreen: 0-lin 1-nonlin 2-no                                               
   RPACOR =     .000    partial core radius                                                         
   POMASS =    7.010; ZVAL   =    3.000    mass and valenz                                          
   RCORE  =    2.050    outmost cutoff radius                                                       
   RWIGS  =    2.050; RWIGS  =    1.085    wigner-seitz radius (au A)                               
   ENMAX  =  271.649; ENMIN  =  203.737 eV                                                          
   ICORE  =        2    local potential                                                             
   LCOR   =        T    correct aug charges                                                         
   LPAW   =        T    paw PP                                                                      
   EAUG   =  428.394                                                                                
   RMAX   =    2.797    core radius for proj-oper                                                   
   RAUG   =    1.300    factor for augmentation sphere                                              
   RDEP   =    2.094    radius for radial grids                                                     
   RDEPT  =    1.550    core radius for aug-charge                                                  
   QCUT   =   -4.468; QGAM   =    8.937    optimization parameters                                  
                                                                                                    
   Description                                                                                      
     l     E      TYP  RCUT    TYP  RCUT                                                            
     0   .000     23  1.550                                                                         
     0   .000     23  2.050                                                                         
     0   .000     23  1.550                                                                         
     0   .000     23  2.050                                                                         
     1  -.200     23  2.050                                                                         
     1  1.500     23  2.050                                                                         
     2   .000      7  1.550                                                                         
  local pseudopotential read in
  atomic valenz-charges read in
  non local Contribution for L=           0  read in
    real space projection operators read in
  non local Contribution for L=           0  read in
    real space projection operators read in
  non local Contribution for L=           1  read in
    real space projection operators read in
  non local Contribution for L=           1  read in
    real space projection operators read in
    PAW grid and wavefunctions read in
 
   number of l-projection  operators is LMAX  =           4
   number of lm-projection operators is LMMAX =           8
 
 POTCAR:   PAW_PBE Nb_pv 08Apr2002                
   VRHFIN =Nb: 4p5s4d                                                                               
   LEXCH  = PE                                                                                      
   EATOM  =  1043.3919 eV,   76.6871 Ry                                                             
                                                                                                    
   TITEL  = PAW_PBE Nb_pv 08Apr2002                                                                 
   LULTRA =        F    use ultrasoft PP ?                                                          
   IUNSCR =        1    unscreen: 0-lin 1-nonlin 2-no                                               
   RPACOR =    2.200    partial core radius                                                         
   POMASS =   92.000; ZVAL   =   11.000    mass and valenz                                          
   RCORE  =    2.750    outmost cutoff radius                                                       
   RWIGS  =    2.840; RWIGS  =    1.503    wigner-seitz radius (au A)                               
   ENMAX  =  208.608; ENMIN  =  156.456 eV                                                          
   RCLOC  =    2.201    cutoff for local pot                                                        
   LCOR   =        T    correct aug charges                                                         
   LPAW   =        T    paw PP                                                                      
   EAUG   =  355.067                                                                                
   DEXC   =    -.005                                                                                
   RMAX   =    3.192    core radius for proj-oper                                                   
   RAUG   =    1.300    factor for augmentation sphere                                              
   RDEP   =    2.776    radius for radial grids                                                     
   QCUT   =   -3.916; QGAM   =    7.831    optimization parameters                                  
                                                                                                    
   Description                                                                                      
     l     E      TYP  RCUT    TYP  RCUT                                                            
     1   .000     23  2.600                                                                         
     1  -.100     23  2.600                                                                         
     2   .000     23  2.600                                                                         
     2   .000     23  2.600                                                                         
     0   .000     23  2.750                                                                         
     0  1.500     23  2.750                                                                         
     3   .000      7   .000                                                                         
  local pseudopotential read in
  partial core-charges read in
  atomic valenz-charges read in
  non local Contribution for L=           1  read in
    real space projection operators read in
  non local Contribution for L=           1  read in
    real space projection operators read in
  non local Contribution for L=           2  read in
    real space projection operators read in
  non local Contribution for L=           2  read in
    real space projection operators read in
  non local Contribution for L=           0  read in
    real space projection operators read in
  non local Contribution for L=           0  read in
    real space projection operators read in
    PAW grid and wavefunctions read in
 
   number of l-projection  operators is LMAX  =           6
   number of lm-projection operators is LMMAX =          18
 
 POTCAR:   PAW_PBE Mo_pv 08Apr2002                
   VRHFIN =Mo: 4p5s4d                                                                               
   LEXCH  = PE                                                                                      
   EATOM  =  1284.3009 eV,   94.3935 Ry                                                             
                                                                                                    
   TITEL  = PAW_PBE Mo_pv 08Apr2002                                                                 
   LULTRA =        F    use ultrasoft PP ?                                                          
   IUNSCR =        1    unscreen: 0-lin 1-nonlin 2-no                                               
   RPACOR =    2.200    partial core radius                                                         
   POMASS =   95.940; ZVAL   =   12.000    mass and valenz                                          
   RCORE  =    2.600    outmost cutoff radius                                                       
   RWIGS  =    2.750; RWIGS  =    1.455    wigner-seitz radius (au A)                               
   ENMAX  =  224.584; ENMIN  =  168.438 eV                                                          
   RCLOC  =    1.902    cutoff for local pot                                                        
   LCOR   =        T    correct aug charges                                                         
   LPAW   =        T    paw PP                                                                      
   EAUG   =  392.427                                                                                
   DEXC   =    -.006                                                                                
   RMAX   =    3.077    core radius for proj-oper                                                   
   RAUG   =    1.300    factor for augmentation sphere                                              
   RDEP   =    2.641    radius for radial grids                                                     
   QCUT   =   -4.063; QGAM   =    8.126    optimization parameters                                  
                                                                                                    
   Description                                                                                      
     l     E      TYP  RCUT    TYP  RCUT                                                            
     1   .000     23  2.500                                                                         
     1  -.200     23  2.500                                                                         
     2   .000     23  2.500                                                                         
     2   .000     23  2.500                                                                         
     0   .000     23  2.600                                                                         
     0  1.000     23  2.600                                                                         
     3   .000      7   .000                                                                         
  local pseudopotential read in
  partial core-charges read in
  atomic valenz-charges read in
  non local Contribution for L=           1  read in
    real space projection operators read in
  non local Contribution for L=           1  read in
    real space projection operators read in
  non local Contribution for L=           2  read in
    real space projection operators read in
  non local Contribution for L=           2  read in
    real space projection operators read in
  non local Contribution for L=           0  read in
    real space projection operators read in
  non local Contribution for L=           0  read in
    real space projection operators read in
    PAW grid and wavefunctions read in
 
   number of l-projection  operators is LMAX  =           6
   number of lm-projection operators is LMMAX =          18
 
 POTCAR:   PAW_PBE O 08Apr2002                    
   VRHFIN =O: s2p4                                                                                  
   LEXCH  = PE                                                                                      
   EATOM  =   432.3788 eV,   31.7789 Ry                                                             
                                                                                                    
   TITEL  = PAW_PBE O 08Apr2002                                                                     
   LULTRA =        F    use ultrasoft PP ?                                                          
   IUNSCR =        0    unscreen: 0-lin 1-nonlin 2-no                                               
   RPACOR =     .000    partial core radius                                                         
   POMASS =   16.000; ZVAL   =    6.000    mass and valenz                                          
   RCORE  =    1.520    outmost cutoff radius                                                       
   RWIGS  =    1.550; RWIGS  =     .820    wigner-seitz radius (au A)                               
   ENMAX  =  400.000; ENMIN  =  300.000 eV                                                          
   ICORE  =        2    local potential                                                             
   LCOR   =        T    correct aug charges                                                         
   LPAW   =        T    paw PP                                                                      
   EAUG   =  605.392                                                                                
   DEXC   =     .000                                                                                
   RMAX   =    2.264    core radius for proj-oper                                                   
   RAUG   =    1.300    factor for augmentation sphere                                              
   RDEP   =    1.550    radius for radial grids                                                     
   QCUT   =   -5.520; QGAM   =   11.041    optimization parameters                                  
                                                                                                    
   Description                                                                                      
     l     E      TYP  RCUT    TYP  RCUT                                                            
     0   .000     23  1.200                                                                         
     0  -.700     23  1.200                                                                         
     1   .000     23  1.520                                                                         
     1   .600     23  1.520                                                                         
     2   .000      7  1.500                                                                         
  local pseudopotential read in
  atomic valenz-charges read in
  non local Contribution for L=           0  read in
    real space projection operators read in
  non local Contribution for L=           0  read in
    real space projection operators read in
  non local Contribution for L=           1  read in
    real space projection operators read in
  non local Contribution for L=           1  read in
    real space projection operators read in
    PAW grid and wavefunctions read in
 
   number of l-projection  operators is LMAX  =           4
   number of lm-projection operators is LMMAX =           8
 
 -----------------------------------------------------------------------------
|                                                                             |
|               ----> ADVICE to this user running VASP <----                  |
|                                                                             |
|     You have a (more or less) 'large supercell' and for larger cells it     |
|     might be more efficient to use real-space projection operators.         |
|     Therefore, try LREAL= Auto in the INCAR file.                           |
|     Mind: If you want to do very accurate calculations, keep the            |
|     reciprocal projection scheme (i.e. LREAL=.FALSE.).                      |
|                                                                             |
 -----------------------------------------------------------------------------

 PAW_PBE Li_sv 23Jan2001                :
 energy of atom  1       EATOM= -202.7858
 kinetic energy error for atom=    0.0020 (will be added to EATOM!!)
 PAW_PBE Nb_pv 08Apr2002                :
 energy of atom  2       EATOM=-1043.3919
 kinetic energy error for atom=    0.0011 (will be added to EATOM!!)
 PAW_PBE Mo_pv 08Apr2002                :
 energy of atom  3       EATOM=-1284.3009
 kinetic energy error for atom=    0.0019 (will be added to EATOM!!)
 PAW_PBE O 08Apr2002                    :
 energy of atom  4       EATOM= -432.3788
 kinetic energy error for atom=    0.0208 (will be added to EATOM!!)
 
 
 POSCAR: Li   Nb   Mo   O
  positions in direct lattice
  No initial velocities read in
 exchange correlation table for  LEXCH =        8
   RHO(1)=    0.500       N(1)  =     2000
   RHO(2)=  100.500       N(2)  =     4000
 
 POSCAR: Li   Nb   Mo   O
  positions in direct lattice
  No initial velocities read in
 
 POSCAR: Li   Nb   Mo   O
  positions in direct lattice
  No initial velocities read in
 


--------------------------------------------------------------------------------------------------------


 ion  position               nearest neighbor table
   1  0.335  0.752  0.623-  65 1.58  74 1.58  13 2.60  18 2.64  22 2.70  21 2.77
   2  0.367  0.008  0.046-  42 1.84  34 1.89  33 2.00  33 2.03  90 2.19  86 2.33   9 3.46   9 3.48

   3  0.634  0.008  0.955-  43 1.86  35 1.87  32 2.00  32 2.03  91 2.21  87 2.31   8 3.46   8 3.48

   4  0.865  0.508  0.045-  44 1.86  36 1.87  31 2.00  31 2.03  92 2.19  88 2.32   7 3.46   7 3.48

   5  0.131  0.509  0.955-  45 1.83  37 1.91  30 2.00  30 2.03  93 2.15  89 2.34   6 3.46   6 3.49

   6  0.249  0.004  0.137-  54 1.81  34 1.99  89 2.02  89 2.02  46 2.07  30 2.36   5 3.46   5 3.49

   7  0.752  0.003  0.862-  55 1.81  88 2.02  88 2.02  35 2.02  47 2.02  31 2.35   4 3.46   4 3.48

   8  0.748  0.503  0.138-  56 1.81  36 2.01  87 2.02  87 2.02  48 2.03  32 2.36   3 3.46   3 3.48

   9  0.250  0.503  0.865-  57 1.81  37 1.95  86 2.02  86 2.02  49 2.09  33 2.35   2 3.46   2 3.48

  10  0.129  0.997  0.230-  46 1.84  62 1.89  85 2.01  85 2.03  38 2.17  50 2.32  25 3.44  25 3.46

  11  0.869  0.999  0.767-  63 1.85  47 1.87  84 2.01  84 2.03  39 2.21  51 2.29  24 3.42  24 3.43

  12  0.631  0.499  0.233-  64 1.85  48 1.86  83 2.01  83 2.03  40 2.21  52 2.29  23 3.42  23 3.43

  13  0.371  0.496  0.775-  49 1.83  65 1.91  82 2.00  82 2.03  41 2.12  53 2.39   1 2.60  22 3.52
                            22 3.54
  14  0.419  0.967  0.380-  81 1.85  29 1.93  58 2.02  81 2.05  66 2.07  54 2.14
  15  0.584  0.967  0.618-  80 1.85  29 1.93  67 2.01  80 2.05  59 2.09  55 2.14
  16  0.918  0.467  0.382-  79 1.85  28 1.93  68 2.03  79 2.05  60 2.06  56 2.15
  17  0.082  0.467  0.620-  78 1.85  28 1.93  61 2.03  78 2.05  69 2.06  57 2.14
  18  0.296  0.003  0.467-  66 1.83  62 1.98  73 2.02  73 2.02  74 2.04  70 2.38   1 2.64  21 3.51
                            21 3.52
  19  0.702  0.004  0.526-  67 1.86  75 1.95  72 2.01  72 2.01  63 2.06  71 2.29  20 3.44  20 3.44

  20  0.799  0.504  0.473-  68 1.85  76 1.95  71 2.01  71 2.02  64 2.05  72 2.31  19 3.44  19 3.44

  21  0.199  0.503  0.524-  69 1.84  77 1.90  70 2.02  70 2.02  65 2.16  73 2.37   1 2.77  18 3.51
                            18 3.52
  22  0.467  0.001  0.714-  59 1.82  74 1.99  53 2.02  53 2.02  43 2.05  82 2.39   1 2.70  13 3.52
                            13 3.54
  23  0.537  0.002  0.287-  58 1.86  75 1.93  52 2.01  52 2.01  42 2.10  83 2.28  12 3.42  12 3.43

  24  0.964  0.502  0.712-  61 1.86  76 1.92  51 2.01  51 2.02  45 2.11  84 2.29  11 3.42  11 3.43

  25  0.034  0.501  0.285-  60 1.84  77 1.98  50 2.01  50 2.01  44 2.06  85 2.32  10 3.44  10 3.46

  26  0.999  0.252  0.000-  39 1.79  92 1.79  38 1.80  93 1.80
  27  0.501  0.753  0.001-  40 1.78  91 1.79  90 1.79  41 1.81
  28  0.000  0.491  0.500-  16 1.93  17 1.93
  29  0.501  0.991  0.499-  15 1.93  14 1.93
  30  0.149  0.004  0.991-   5 2.00   5 2.03   6 2.36
  31  0.850  0.004  0.009-   4 2.00   4 2.03   7 2.35
  32  0.649  0.504  0.991-   3 2.00   3 2.03   8 2.36
  33  0.351  0.504  0.009-   2 2.00   2 2.03   9 2.35
  34  0.303  0.003  0.082-   2 1.89   6 1.99
  35  0.696  0.004  0.918-   3 1.87   7 2.02
  36  0.803  0.503  0.081-   4 1.87   8 2.01
  37  0.196  0.502  0.920-   5 1.91   9 1.95
  38  0.034  0.999  0.099-  26 1.80  10 2.17
  39  0.966  0.000  0.902-  26 1.79  11 2.21
  40  0.534  0.502  0.099-  27 1.78  12 2.21
  41  0.466  0.500  0.901-  27 1.81  13 2.12
  42  0.450  0.004  0.156-   2 1.84  23 2.10
  43  0.550  0.003  0.844-   3 1.86  22 2.05
  44  0.949  0.503  0.156-   4 1.86  25 2.06
  45  0.050  0.505  0.845-   5 1.83  24 2.11
  46  0.180  0.002  0.178-  10 1.84   6 2.07
  47  0.820  0.003  0.823-  11 1.87   7 2.02
  48  0.680  0.503  0.177-  12 1.86   8 2.03
  49  0.319  0.500  0.824-  13 1.83   9 2.09
  50  0.049  0.001  0.270-  25 2.01  25 2.01  10 2.32
  51  0.950  0.002  0.730-  24 2.01  24 2.02  11 2.29
  52  0.550  0.502  0.270-  23 2.01  23 2.01  12 2.29
  53  0.450  0.501  0.728-  22 2.02  22 2.02  13 2.39
  54  0.325  1.000  0.250-   6 1.81  14 2.14
  55  0.675  0.999  0.750-   7 1.81  15 2.14
  56  0.825  0.499  0.250-   8 1.81  16 2.15
  57  0.174  0.500  0.751-   9 1.81  17 2.14
  58  0.476  0.999  0.326-  23 1.86  14 2.02
  59  0.523  0.999  0.671-  22 1.82  15 2.09
  60  0.976  0.499  0.327-  25 1.84  16 2.06
  61  0.024  0.498  0.674-  24 1.86  17 2.03
  62  0.207  0.002  0.349-  10 1.89  18 1.98
  63  0.793  0.002  0.651-  11 1.85  19 2.06
  64  0.708  0.502  0.349-  12 1.85  20 2.05
  65  0.297  0.502  0.653-   1 1.58  13 1.91  21 2.16
  66  0.354  0.001  0.425-  18 1.83  14 2.07
  67  0.648  0.999  0.574-  19 1.86  15 2.01
  68  0.853  0.500  0.426-  20 1.85  16 2.03
  69  0.148  0.500  0.576-  21 1.84  17 2.06
  70  0.223  0.003  0.522-  21 2.02  21 2.02  18 2.38
  71  0.779  0.003  0.481-  20 2.01  20 2.02  19 2.29
  72  0.722  0.503  0.518-  19 2.01  19 2.01  20 2.31
  73  0.280  0.503  0.482-  18 2.02  18 2.02  21 2.37
  74  0.376  0.002  0.597-   1 1.58  22 1.99  18 2.04
  75  0.622  0.003  0.404-  23 1.93  19 1.95
  76  0.878  0.503  0.596-  24 1.92  20 1.95
  77  0.122  0.502  0.404-  21 1.90  25 1.98
  78  0.091  0.993  0.631-  17 1.85  17 2.05
  79  0.910  0.993  0.369-  16 1.85  16 2.05
  80  0.590  0.493  0.631-  15 1.85  15 2.05
  81  0.410  0.492  0.369-  14 1.85  14 2.05
  82  0.393  1.000  0.769-  13 2.00  13 2.03  22 2.39
  83  0.606  0.001  0.232-  12 2.01  12 2.03  23 2.28
  84  0.895  0.501  0.768-  11 2.01  11 2.03  24 2.29
  85  0.106  0.500  0.232-  10 2.01  10 2.03  25 2.32
  86  0.275  0.003  0.897-   9 2.02   9 2.02   2 2.33
  87  0.724  0.004  0.103-   8 2.02   8 2.02   3 2.31
  88  0.775  0.504  0.897-   7 2.02   7 2.02   4 2.32
  89  0.224  0.504  0.104-   6 2.02   6 2.02   5 2.34
  90  0.429  0.004  0.987-  27 1.79   2 2.19
  91  0.571  0.005  0.013-  27 1.79   3 2.21
  92  0.928  0.503  0.987-  26 1.79   4 2.19
  93  0.071  0.504  0.013-  26 1.80   5 2.15
 

IMPORTANT INFORMATION: All symmetrisations will be switched off!
NOSYMM: (Re-)initialisation of all symmetry stuff for point group C_1.


----------------------------------------------------------------------------------------

                                     Primitive cell                                     

  volume of cell :    1336.3476

  direct lattice vectors                    reciprocal lattice vectors
    22.785142899  0.000000000  0.000000000     0.043888248  0.000000000  0.028932614
     0.000000000  3.876850367  0.000000000     0.000000000  0.257941346 -0.000000041
    -9.973051630  0.000002413 15.128248185     0.000000000  0.000000000  0.066101507

  length of vectors
    22.785142899  3.876850367 18.119758606     0.052566857  0.257941346  0.066101507

  position of ions in fractional coordinates (direct lattice)
     0.335197057  0.751598318  0.623018053
     0.367097553  0.007642762  0.045928526
     0.634302957  0.007923776  0.954578874
     0.865483962  0.507872422  0.044969896
     0.131404533  0.509387024  0.955082748
     0.248741606  0.003575816  0.137282591
     0.752263161  0.003181564  0.861619645
     0.747926196  0.503158313  0.138009714
     0.249654261  0.503409749  0.864684123
     0.129401775  0.997186373  0.229707140
     0.868979147  0.998631555  0.767139869
     0.631456806  0.498549262  0.232894756
     0.370924229  0.495886227  0.774720670
     0.418951604  0.966627986  0.379573146
     0.584057497  0.967168350  0.617533942
     0.917595733  0.467072479  0.381618045
     0.082177739  0.466956913  0.620242645
     0.296235933  0.003310956  0.466711964
     0.702379304  0.003519805  0.526101099
     0.798578458  0.503661224  0.472907788
     0.198716701  0.502927931  0.524482158
     0.467447015  0.001291119  0.714256780
     0.536649303  0.001815261  0.286947391
     0.963529015  0.501652780  0.712223371
     0.033544098  0.501339582  0.284756657
     0.999245558  0.252038719  0.000042775
     0.500723419  0.752968377  0.000822285
     0.000382459  0.490986839  0.500391893
     0.500672894  0.991106491  0.499264484
     0.148599510  0.004468824  0.991285495
     0.850015891  0.004012598  0.008738598
     0.649143640  0.504355216  0.990516523
     0.350849269  0.504024972  0.009241446
     0.303262269  0.003017322  0.081604759
     0.696273660  0.003800453  0.917601407
     0.802935464  0.503332181  0.081491894
     0.196342479  0.502049793  0.919984244
     0.033659740  0.999051212  0.098720104
     0.965595081  0.000082870  0.902217849
     0.534397537  0.501648302  0.098626373
     0.466437999  0.500063719  0.901296407
     0.449711632  0.003916783  0.155666551
     0.550020662  0.003173951  0.843895489
     0.949171904  0.503431323  0.155505780
     0.050096721  0.505123045  0.844558136
     0.179764066  0.001825159  0.177566587
     0.820086198  0.003155293  0.822649316
     0.679861559  0.502969749  0.177076790
     0.319151177  0.500225630  0.823684944
     0.048932478  0.001203358  0.270390794
     0.950453709  0.001843935  0.730159475
     0.549862049  0.501734260  0.269670482
     0.450396279  0.501190020  0.727520715
     0.325415345  0.999592435  0.249799881
     0.674639957  0.999382383  0.749863296
     0.825383956  0.499204778  0.249744660
     0.174167797  0.499826535  0.751246047
     0.476309693  0.998574391  0.325997876
     0.523433289  0.999468223  0.671248897
     0.976257861  0.499373639  0.326961350
     0.024000196  0.498345966  0.673576366
     0.206504884  0.001768109  0.348806396
     0.792904716  0.001928483  0.651080304
     0.707597747  0.502149943  0.348999116
     0.296780285  0.501730232  0.652534547
     0.353584209  0.000657322  0.425461796
     0.648157136  0.999294902  0.574263859
     0.852834227  0.500230869  0.425519688
     0.148373460  0.500015033  0.576144070
     0.222626213  0.002558769  0.522143116
     0.778778449  0.003076031  0.481142502
     0.721934382  0.502937391  0.518494949
     0.280042452  0.502744056  0.481516296
     0.376009731  0.002157087  0.597124030
     0.621845618  0.002618393  0.403888797
     0.878439498  0.502774429  0.595956459
     0.121855477  0.502229280  0.404228154
     0.091065675  0.992645456  0.631100690
     0.910043253  0.992903144  0.368833187
     0.590020988  0.492789416  0.631040701
     0.409588641  0.492496279  0.368970273
     0.392802899  0.999863992  0.768699306
     0.605886032  0.001159260  0.231836104
     0.894505157  0.501028290  0.768251789
     0.105745975  0.500255569  0.231879818
     0.275370065  0.003040554  0.897074384
     0.723994868  0.003627982  0.102704420
     0.775442699  0.503629828  0.896585365
     0.224225074  0.503632898  0.104079359
     0.429306985  0.004316069  0.987300956
     0.571452007  0.004710501  0.013355859
     0.928013154  0.502720048  0.986862493
     0.070918913  0.503894145  0.013499508

  ion indices of the primitive-cell ions
   primitive index   ion index
                 1           1
                 2           2
                 3           3
                 4           4
                 5           5
                 6           6
                 7           7
                 8           8
                 9           9
                10          10
                11          11
                12          12
                13          13
                14          14
                15          15
                16          16
                17          17
                18          18
                19          19
                20          20
                21          21
                22          22
                23          23
                24          24
                25          25
                26          26
                27          27
                28          28
                29          29
                30          30
                31          31
                32          32
                33          33
                34          34
                35          35
                36          36
                37          37
                38          38
                39          39
                40          40
                41          41
                42          42
                43          43
                44          44
                45          45
                46          46
                47          47
                48          48
                49          49
                50          50
                51          51
                52          52
                53          53
                54          54
                55          55
                56          56
                57          57
                58          58
                59          59
                60          60
                61          61
                62          62
                63          63
                64          64
                65          65
                66          66
                67          67
                68          68
                69          69
                70          70
                71          71
                72          72
                73          73
                74          74
                75          75
                76          76
                77          77
                78          78
                79          79
                80          80
                81          81
                82          82
                83          83
                84          84
                85          85
                86          86
                87          87
                88          88
                89          89
                90          90
                91          91
                92          92
                93          93

----------------------------------------------------------------------------------------

 
 
 KPOINTS: pymatgen with grid density = 1000 / numb

Automatic generation of k-mesh.
 Grid dimensions read from file:
 generate k-points for:    1    6    1

 Generating k-lattice:

  Cartesian coordinates                     Fractional coordinates (reciprocal lattice)
     0.043888248  0.000000000  0.028932614     1.000000000  0.000000000 -0.000000000
     0.000000000  0.042990224 -0.000000007     0.000000000  0.166666667  0.000000000
     0.000000000  0.000000000  0.066101507     0.000000000  0.000000000  1.000000000

  Length of vectors
     0.052566857  0.042990224  0.066101507

  Shift w.r.t. Gamma in fractional coordinates (k-lattice)
     0.000000000  0.000000000  0.000000000

 
 Subroutine IBZKPT returns following result:
 ===========================================
 
 Found      4 irreducible k-points:
 
 Following reciprocal coordinates:
            Coordinates               Weight
  0.000000  0.000000  0.000000      1.000000
  0.000000  0.166667  0.000000      2.000000
  0.000000  0.333333  0.000000      2.000000
  0.000000  0.500000  0.000000      1.000000
 
 Following cartesian coordinates:
            Coordinates               Weight
  0.000000  0.000000  0.000000      1.000000
  0.000000  0.042990 -0.000000      2.000000
  0.000000  0.085980 -0.000000      2.000000
  0.000000  0.128971 -0.000000      1.000000
 


--------------------------------------------------------------------------------------------------------




 Dimension of arrays:
   k-points           NKPTS =      4   k-points in BZ     NKDIM =      4   number of bands    NBANDS=    462
   number of dos      NEDOS =    301   number of ions     NIONS =     93
   non local maximal  LDIM  =      6   non local SUM 2l+1 LMDIM =     18
   total plane-waves  NPLWV = 756000
   max r-space proj   IRMAX =      1   max aug-charges    IRDMAX= 278808
   dimension x,y,z NGX =   180 NGY =   30 NGZ =  140
   dimension x,y,z NGXF=   360 NGYF=   60 NGZF=  280
   support grid    NGXF=   720 NGYF=  120 NGZF=  560
   ions per type =               1  24   2  66
   NGX,Y,Z   is equivalent  to a cutoff of  13.13, 12.86, 12.84 a.u.
   NGXF,Y,Z  is equivalent  to a cutoff of  26.27, 25.73, 25.69 a.u.

 SYSTEM =  unknown system                          
 POSCAR =  Li   Nb   Mo   O                        

 Startparameter for this run:
   NWRITE =      2    write-flag & timer
   PREC   = accura    normal or accurate (medium, high low for compatibility)
   ISTART =      0    job   : 0-new  1-cont  2-samecut
   ICHARG =      2    charge: 1-file 2-atom 10-const
   ISPIN  =      2    spin polarized calculation?
   LNONCOLLINEAR =      F non collinear calculations
   LSORBIT =      F    spin-orbit coupling
   INIWAV =      1    electr: 0-lowe 1-rand  2-diag
   LASPH  =      T    aspherical Exc in radial PAW
 Electronic Relaxation 1
   ENCUT  =  520.0 eV  38.22 Ry    6.18 a.u.  42.37  7.21 33.69*2*pi/ulx,y,z
   ENINI  =  520.0     initial cutoff
   ENAUG  =  605.4 eV  augmentation charge cutoff
   NELM   =    100;   NELMIN=  3; NELMDL= -5     # of ELM steps 
   EDIFF  = 0.1E-05   stopping-criterion for ELM
   LREAL  =      F    real-space projection
   NLSPLINE    = F    spline interpolate recip. space projectors
   LCOMPAT=      F    compatible to vasp.4.4
   GGA_COMPAT  = T    GGA compatible to vasp.4.4-vasp.4.6
   LMAXPAW     = -100 max onsite density
   LMAXMIX     =    4 max onsite mixed and CHGCAR
   VOSKOWN=      0    Vosko Wilk Nusair interpolation
   ROPT   =    0.00000   0.00000   0.00000   0.00000
 Ionic relaxation
   EDIFFG = -.5E-01   stopping-criterion for IOM
   NSW    =    450    number of steps for IOM
   NBLOCK =      1;   KBLOCK =    450    inner block; outer block 
   IBRION =      1    ionic relax: 0-MD 1-quasi-New 2-CG
   NFREE  =      0    steps in history (QN), initial steepest desc. (CG)
   ISIF   =      2    stress and relaxation
   IWAVPR =     11    prediction:  0-non 1-charg 2-wave 3-comb
   ISYM   =      0    0-nonsym 1-usesym 2-fastsym
   LCORR  =      T    Harris-Foulkes like correction to forces

   POTIM  = 0.2000    time-step for ionic-motion
   TEIN   =    0.0    initial temperature
   TEBEG  =    0.0;   TEEND  =   0.0 temperature during run
   SMASS  =  -3.00    Nose mass-parameter (am)
   estimated Nose-frequenzy (Omega)   =  0.10E-29 period in steps = 0.31E+47 mass=  -0.119E-25a.u.
   SCALEE = 1.0000    scale energy and forces
   NPACO  =    256;   APACO  = 10.0  distance and # of slots for P.C.
   PSTRESS=    0.0 pullay stress

  Mass of Ions in am
   POMASS =   7.01 92.00 95.94 16.00
  Ionic Valenz
   ZVAL   =   3.00 11.00 12.00  6.00
  Atomic Wigner-Seitz radii
   RWIGS  =  -1.00 -1.00 -1.00 -1.00
  virtual crystal weights 
   VCA    =   1.00  1.00  1.00  1.00
   NELECT =     687.0000    total number of electrons
   NUPDOWN=      -1.0000    fix difference up-down

 DOS related values:
   EMIN   =  10.00;   EMAX   =-10.00  energy-range for DOS
   EFERMI =   0.00
   ISMEAR =     0;   SIGMA  =   0.05  broadening in eV -4-tet -1-fermi 0-gaus

 Electronic relaxation 2 (details)
   IALGO  =     68    algorithm
   LDIAG  =      T    sub-space diagonalisation (order eigenvalues)
   LSUBROT=      F    optimize rotation matrix (better conditioning)
   TURBO    =      0    0=normal 1=particle mesh
   IRESTART =      0    0=no restart 2=restart with 2 vectors
   NREBOOT  =      0    no. of reboots
   NMIN     =      0    reboot dimension
   EREF     =   0.00    reference energy to select bands
   IMIX   =      4    mixing-type and parameters
     AMIX     =   0.40;   BMIX     =  1.00
     AMIX_MAG =   1.60;   BMIX_MAG =  1.00
     AMIN     =   0.10
     WC   =   100.;   INIMIX=   1;  MIXPRE=   1;  MAXMIX= -45

 Intra band minimization:
   WEIMIN = 0.0010     energy-eigenvalue tresh-hold
   EBREAK =  0.54E-09  absolut break condition
   DEPER  =   0.30     relativ break condition  

   TIME   =   0.40     timestep for ELM

  volume/ion in A,a.u.               =      14.37        96.97
  Fermi-wavevector in a.u.,A,eV,Ry     =   1.311457  2.478294 23.400912  1.719918
  Thomas-Fermi vector in A             =   2.441917
 
 Write flags
   LWAVE        =      F    write WAVECAR
   LDOWNSAMPLE  =      F    k-point downsampling of WAVECAR
   LCHARG       =      T    write CHGCAR
   LVTOT        =      F    write LOCPOT, total local potential
   LVHAR        =      F    write LOCPOT, Hartree potential only
   LELF         =      F    write electronic localiz. function (ELF)
   LORBIT       =     11    0 simple, 1 ext, 2 COOP (PROOUT), +10 PAW based schemes


 Dipole corrections
   LMONO  =      F    monopole corrections only (constant potential shift)
   LDIPOL =      F    correct potential (dipole corrections)
   IDIPOL =      0    1-x, 2-y, 3-z, 4-all directions 
   EPSILON=  1.0000000 bulk dielectric constant

 LDA+U is selected, type is set to LDAUTYPE =  2
   angular momentum for each species LDAUL =     0    0    2    0
   U (eV)           for each species LDAUU =   0.0  0.0  4.4  0.0
   J (eV)           for each species LDAUJ =   0.0  0.0  0.0  0.0
 Exchange correlation treatment:
   GGA     =    --    GGA type
   LEXCH   =     8    internal setting for exchange type
   LIBXC   =     F    Libxc                    
   VOSKOWN =     0    Vosko Wilk Nusair interpolation
   LHFCALC =     F    Hartree Fock is set to
   LHFONE  =     F    Hartree Fock one center treatment
   AEXX    =    0.0000 exact exchange contribution

 Linear response parameters
   LEPSILON=     F    determine dielectric tensor
   LRPA    =     F    only Hartree local field effects (RPA)
   LNABLA  =     F    use nabla operator in PAW spheres
   LVEL    =     F    velocity operator in full k-point grid
   CSHIFT  =0.1000    complex shift for real part using Kramers Kronig
   OMEGAMAX=  -1.0    maximum frequency
   DEG_THRESHOLD= 0.2000000E-02 threshold for treating states as degnerate
   RTIME   =   -0.100 relaxation time in fs
  (WPLASMAI=    0.000 imaginary part of plasma frequency in eV, 0.658/RTIME)
   DFIELD  = 0.0000000 0.0000000 0.0000000 field for delta impulse in time
 
  Optional k-point grid parameters
   LKPOINTS_OPT  =     F    use optional k-point grid
   KPOINTS_OPT_MODE=     1    mode for optional k-point grid
 
 Orbital magnetization related:
   ORBITALMAG=     F  switch on orbital magnetization
   LCHIMAG   =     F  perturbation theory with respect to B field
   DQ        =  0.001000  dq finite difference perturbation B field
   LLRAUG    =     F  two centre corrections for induced B field



--------------------------------------------------------------------------------------------------------


 quasi-Newton-method for relaxation of ions
 charge density and potential will be updated during run
 spin polarized calculation
 RMM-DIIS sequential band-by-band and
  variant of blocked Davidson during initial phase
 perform sub-space diagonalisation
    before iterative eigenvector-optimisation
 modified Broyden-mixing scheme, WC =      100.0
 initial mixing is a Kerker type mixing with AMIX =  0.4000 and BMIX =      1.0000
 Hartree-type preconditioning will be used
 using additional bands          118
 reciprocal scheme for non local part
 use partial core corrections
 calculate Harris-corrections to forces 
   (improved forces if not selfconsistent)
 use gradient corrections 
 use of overlap-Matrix (Vanderbilt PP)
 Gauss-broadening in eV      SIGMA  =   0.05


--------------------------------------------------------------------------------------------------------


  energy-cutoff  :      520.00
  volume of cell :     1336.35
      direct lattice vectors                 reciprocal lattice vectors
    22.785142899  0.000000000  0.000000000     0.043888248  0.000000000  0.028932614
     0.000000000  3.876850367  0.000000000     0.000000000  0.257941346 -0.000000041
    -9.973051630  0.000002413 15.128248185     0.000000000  0.000000000  0.066101507

  length of vectors
    22.785142899  3.876850367 18.119758606     0.052566857  0.257941346  0.066101507


 
 k-points in units of 2pi/SCALE and weight: pymatgen with grid density = 1000 / numb
   0.00000000  0.00000000  0.00000000       0.167
   0.00000000  0.04299022 -0.00000001       0.333
   0.00000000  0.08598045 -0.00000001       0.333
   0.00000000  0.12897067 -0.00000002       0.167
 
 k-points in reciprocal lattice and weights: pymatgen with grid density = 1000 / numb
   0.00000000  0.00000000  0.00000000       0.167
   0.00000000  0.16666667  0.00000000       0.333
   0.00000000  0.33333333  0.00000000       0.333
   0.00000000  0.50000000  0.00000000       0.167
 
 position of ions in fractional coordinates (direct lattice) 
   0.33519706  0.75159832  0.62301805
   0.36709755  0.00764276  0.04592853
   0.63430296  0.00792378  0.95457887
   0.86548396  0.50787242  0.04496990
   0.13140453  0.50938702  0.95508275
   0.24874161  0.00357582  0.13728259
   0.75226316  0.00318156  0.86161965
   0.74792620  0.50315831  0.13800971
   0.24965426  0.50340975  0.86468412
   0.12940177  0.99718637  0.22970714
   0.86897915  0.99863155  0.76713987
   0.63145681  0.49854926  0.23289476
   0.37092423  0.49588623  0.77472067
   0.41895160  0.96662799  0.37957315
   0.58405750  0.96716835  0.61753394
   0.91759573  0.46707248  0.38161805
   0.08217774  0.46695691  0.62024265
   0.29623593  0.00331096  0.46671196
   0.70237930  0.00351981  0.52610110
   0.79857846  0.50366122  0.47290779
   0.19871670  0.50292793  0.52448216
   0.46744702  0.00129112  0.71425678
   0.53664930  0.00181526  0.28694739
   0.96352901  0.50165278  0.71222337
   0.03354410  0.50133958  0.28475666
   0.99924556  0.25203872  0.00004278
   0.50072342  0.75296838  0.00082229
   0.00038246  0.49098684  0.50039189
   0.50067289  0.99110649  0.49926448
   0.14859951  0.00446882  0.99128550
   0.85001589  0.00401260  0.00873860
   0.64914364  0.50435522  0.99051652
   0.35084927  0.50402497  0.00924145
   0.30326227  0.00301732  0.08160476
   0.69627366  0.00380045  0.91760141
   0.80293546  0.50333218  0.08149189
   0.19634248  0.50204979  0.91998424
   0.03365974  0.99905121  0.09872010
   0.96559508  0.00008287  0.90221785
   0.53439754  0.50164830  0.09862637
   0.46643800  0.50006372  0.90129641
   0.44971163  0.00391678  0.15566655
   0.55002066  0.00317395  0.84389549
   0.94917190  0.50343132  0.15550578
   0.05009672  0.50512305  0.84455814
   0.17976407  0.00182516  0.17756659
   0.82008620  0.00315529  0.82264932
   0.67986156  0.50296975  0.17707679
   0.31915118  0.50022563  0.82368494
   0.04893248  0.00120336  0.27039079
   0.95045371  0.00184393  0.73015947
   0.54986205  0.50173426  0.26967048
   0.45039628  0.50119002  0.72752072
   0.32541534  0.99959243  0.24979988
   0.67463996  0.99938238  0.74986330
   0.82538396  0.49920478  0.24974466
   0.17416780  0.49982654  0.75124605
   0.47630969  0.99857439  0.32599788
   0.52343329  0.99946822  0.67124890
   0.97625786  0.49937364  0.32696135
   0.02400020  0.49834597  0.67357637
   0.20650488  0.00176811  0.34880640
   0.79290472  0.00192848  0.65108030
   0.70759775  0.50214994  0.34899912
   0.29678029  0.50173023  0.65253455
   0.35358421  0.00065732  0.42546180
   0.64815714  0.99929490  0.57426386
   0.85283423  0.50023087  0.42551969
   0.14837346  0.50001503  0.57614407
   0.22262621  0.00255877  0.52214312
   0.77877845  0.00307603  0.48114250
   0.72193438  0.50293739  0.51849495
   0.28004245  0.50274406  0.48151630
   0.37600973  0.00215709  0.59712403
   0.62184562  0.00261839  0.40388880
   0.87843950  0.50277443  0.59595646
   0.12185548  0.50222928  0.40422815
   0.09106567  0.99264546  0.63110069
   0.91004325  0.99290314  0.36883319
   0.59002099  0.49278942  0.63104070
   0.40958864  0.49249628  0.36897027
   0.39280290  0.99986399  0.76869931
   0.60588603  0.00115926  0.23183610
   0.89450516  0.50102829  0.76825179
   0.10574597  0.50025557  0.23187982
   0.27537006  0.00304055  0.89707438
   0.72399487  0.00362798  0.10270442
   0.77544270  0.50362983  0.89658537
   0.22422507  0.50363290  0.10407936
   0.42930699  0.00431607  0.98730096
   0.57145201  0.00471050  0.01335586
   0.92801315  0.50272005  0.98686249
   0.07091891  0.50389415  0.01349951
 
 position of ions in cartesian coordinates  (Angst):
   1.42412163  2.91383572  9.42517173
   7.90632265  0.02962996  0.69481814
   4.93261913  0.03072160 14.44110611
  19.27168866  1.96894550  0.68031575
  -6.53101849  1.97481957 14.44872885
   4.29848666  0.01386323  2.07684511
   8.54744641  0.01233653 13.03479583
  15.66522725  1.95066982  2.08784520
  -2.93513140  1.95164635 13.08115601
   0.65755676  3.86594291  3.47506663
  12.14908854  3.87154696 11.60548232
  12.06516214  1.93280145  3.52328967
   0.72523232  1.92247857 11.72016656
   5.76036959  3.74747298  5.74227676
   7.14913564  3.74956846  9.34220674
  17.10165343  1.81077103  5.77321250
  -4.31328040  1.81032358  9.38318467
   2.09523556  0.01283721  7.06053442
  10.75697938  0.01364703  7.95898800
  13.47939050  1.95262034  7.15426638
  -0.70289921  1.94977760  7.93449625
   3.52752729  0.00500720 10.80545384
   9.36588992  0.00703819  4.34101134
  14.85110584  1.94483448 10.77469191
  -2.07558579  1.94361923  4.30786939
  22.76752623  0.97711640  0.00064711
  11.40085396  2.91914573  0.01243974
  -4.98171979  1.90348372  7.57005274
   6.42871296  3.84237277  7.55299702
  -6.50028036  0.01732735 14.99641299
  19.28058306  0.01555626  0.13219968
   4.91235816  1.95531209 14.98477979
   7.90198531  1.95402942  0.13980690
   6.09602566  0.01169790  1.23453704
   6.71340862  0.01473600 13.88170182
  17.48227641  1.95134375  1.23282960
  -4.70135893  1.94637414 13.91774997
  -0.21759871  3.87317230  1.49346223
  13.00335672  0.00032345 13.64897553
  11.19271833  1.94481564  1.49204424
   1.63918086  1.93867439 13.63503574
   8.69427324  0.01518516  2.35496221
   4.11608611  0.01230697 12.76666040
  20.07615029  1.95172829  2.35253003
  -7.28136094  1.95828850 12.77668508
   2.32506921  0.00707630  2.68627139
  10.48145712  0.01223459 12.44524302
  13.72474681  1.94993888  2.67886162
  -0.94274730  1.93930190 12.46091027
  -1.58168785  0.00466589  4.09053904
  14.37430545  0.00715042 11.04603375
   9.83924772  1.94514930  4.07964198
   3.00674192  1.94304047 11.00611394
   4.92336802  3.87527090  3.77903460
   7.89334246  3.87445777 11.34411805
  16.31577500  1.93534283  3.77819920
  -3.52377748  1.93775450 11.36503665
   7.60159076  3.87132428  4.93177678
   5.23210237  3.87479037 10.15481991
  18.98337244  1.93599766  4.94635245
  -6.17076397  1.93201437 10.19003044
   1.22657909  0.00685553  5.27682973
  11.57318978  0.00747801  9.84970442
  12.64212958  1.94676103  5.27974525
   0.25442048  1.94513461  9.87170458
   3.81331426  0.00254936  6.43649165
   9.04118986  3.87411819  8.68760619
  15.18821992  1.93932125  6.43736745
  -2.36520405  1.93848485  8.71605048
  -0.13479018  0.00992123  7.89911065
  12.94611924  0.01192647  7.27884318
  11.27840117  1.94981426  7.84392028
   1.57862040  1.94906464  7.28449803
   2.61228667  0.00836415  9.03344053
  10.14083745  0.01015209  6.11012996
  14.07186496  1.94918267  9.01577722
  -1.25489380  1.94706874  6.11526384
  -4.21905536  3.84833942  9.54744787
  17.05707315  3.84933781  5.57979999
   7.15031103  1.91047235  9.54654033
   5.65277613  1.90933527  5.58187386
   1.28379232  3.87632494 11.62907388
  11.49308638  0.00449484  3.50727412
  12.71961307  1.94241357 11.62230374
   0.09688775  1.93941654  3.50793544
  -2.67222287  0.01178994 13.57116392
  15.47205005  0.01406539  1.55373795
   8.72688057  1.95249965 13.56376592
   4.07101153  1.95250963  1.57453837
  -0.06458241  0.01673513 14.93613390
  12.88741697  0.01826194  0.20205074
  11.30288173  1.94897278 14.92950071
   1.48126627  1.95352223  0.20422391
 


--------------------------------------------------------------------------------------------------------


 k-point   1 :   0.0000 0.0000 0.0000  plane waves:   36029
 k-point   2 :   0.0000 0.1667 0.0000  plane waves:   35947
 k-point   3 :   0.0000 0.3333 0.0000  plane waves:   35982
 k-point   4 :   0.0000 0.5000 0.0000  plane waves:   36018

 maximum and minimum number of plane-waves per node :     36029    35947

 maximum number of plane-waves:     36029
 maximum index in each direction: 
   IXMAX=   42   IYMAX=    7   IZMAX=   33
   IXMIN=  -42   IYMIN=   -7   IZMIN=  -33


 serial   3D FFT for wavefunctions
 parallel 3D FFT for charge:
    minimum data exchange during FFTs selected (reduces bandwidth)


 total amount of memory used by VASP MPI-rank0   321868. kBytes
=======================================================================

   base      :      30000. kBytes
   nonl-proj :     136648. kBytes
   fftplans  :      24917. kBytes
   grid      :      75254. kBytes
   one-center:       2892. kBytes
   wavefun   :      52157. kBytes
 
     INWAV:  cpu time      0.0000: real time      0.0000
 Broyden mixing: mesh for mixing (old mesh)
   NGX = 85   NGY = 15   NGZ = 67
  (NGX  =360   NGY  = 60   NGZ  =280)
  gives a total of  85425 points

 initial charge density was supplied:
 charge density of overlapping atoms calculated
 number of electron     687.0000000 magnetization      55.8000000
 keeping initial charge density in first step


--------------------------------------------------------------------------------------------------------


 Maximum index for augmentation-charges         9948 (set IRDMAX)


--------------------------------------------------------------------------------------------------------


 First call to EWALD:  gamma=   0.161
 Maximum number of real-space cells 2x 7x 2
 Maximum number of reciprocal cells 5x 1x 4

    FEWALD:  cpu time      0.0027: real time      0.0027


--------------------------------------- Iteration      1(   1)  ---------------------------------------


    POTLOK:  cpu time      0.1938: real time      0.1951
    SETDIJ:  cpu time      0.8208: real time      0.8247
atom =   1  type =  1  l = 0
 
 onsite density matrix
 
spin component  1
 
  1.2642
 
spin component  2
 
  0.8428
 
 occupancies and eigenvectors
 
  o =  0.8428  v =  0.0000  1.0000      0.0000  0.0000
  o =  1.2642  v =  1.0000  0.0000      0.0000  0.0000
 
atom =   2  type =  2  l = 0
 
 onsite density matrix
 
spin component  1
 
  0.1347
 
spin component  2
 
  0.1207
 
 occupancies and eigenvectors
 
  o =  0.1207  v =  0.0000  1.0000      0.0000  0.0000
  o =  0.1347  v =  1.0000  0.0000      0.0000  0.0000
 
atom =   3  type =  2  l = 0
 
 onsite density matrix
 
spin component  1
 
  0.1347
 
spin component  2
 
  0.1207
 
 occupancies and eigenvectors
 
  o =  0.1207  v =  0.0000  1.0000      0.0000  0.0000
  o =  0.1347  v =  1.0000  0.0000      0.0000  0.0000
 
atom =   4  type =  2  l = 0
 
 onsite density matrix
 
spin component  1
 
  0.1347
 
spin component  2
 
  0.1207
 
 occupancies and eigenvectors
 
  o =  0.1207  v =  0.0000  1.0000      0.0000  0.0000
  o =  0.1347  v =  1.0000  0.0000      0.0000  0.0000
 
atom =   5  type =  2  l = 0
 
 onsite density matrix
 
spin component  1
 
  0.1347
 
spin component  2
 
  0.1207
 
 occupancies and eigenvectors
 
  o =  0.1207  v =  0.0000  1.0000      0.0000  0.0000
  o =  0.1347  v =  1.0000  0.0000      0.0000  0.0000
 
atom =   6  type =  2  l = 0
 
 onsite density matrix
 
spin component  1
 
  0.1347
 
spin component  2
 
  0.1207
 
 occupancies and eigenvectors
 
  o =  0.1207  v =  0.0000  1.0000      0.0000  0.0000
  o =  0.1347  v =  1.0000  0.0000      0.0000  0.0000
 
atom =   7  type =  2  l = 0
 
 onsite density matrix
 
spin component  1
 
  0.1347
 
spin component  2
 
  0.1207
 
 occupancies and eigenvectors
 
  o =  0.1207  v =  0.0000  1.0000      0.0000  0.0000
  o =  0.1347  v =  1.0000  0.0000      0.0000  0.0000
 
atom =   8  type =  2  l = 0
 
 onsite density matrix
 
spin component  1
 
  0.1347
 
spin component  2
 
  0.1207
 
 occupancies and eigenvectors
 
  o =  0.1207  v =  0.0000  1.0000      0.0000  0.0000
  o =  0.1347  v =  1.0000  0.0000      0.0000  0.0000
 
atom =   9  type =  2  l = 0
 
 onsite density matrix
 
spin component  1
 
  0.1347
 
spin component  2
 
  0.1207
 
 occupancies and eigenvectors
 
  o =  0.1207  v =  0.0000  1.0000      0.0000  0.0000
  o =  0.1347  v =  1.0000  0.0000      0.0000  0.0000
 
atom =  10  type =  2  l = 0
 
 onsite density matrix
 
spin component  1
 
  0.1347
 
spin component  2
 
  0.1207
 
 occupancies and eigenvectors
 
  o =  0.1207  v =  0.0000  1.0000      0.0000  0.0000
  o =  0.1347  v =  1.0000  0.0000      0.0000  0.0000
 
atom =  11  type =  2  l = 0
 
 onsite density matrix
 
spin component  1
 
  0.1347
 
spin component  2
 
  0.1207
 
 occupancies and eigenvectors
 
  o =  0.1207  v =  0.0000  1.0000      0.0000  0.0000
  o =  0.1347  v =  1.0000  0.0000      0.0000  0.0000
 
atom =  12  type =  2  l = 0
 
 onsite density matrix
 
spin component  1
 
  0.1347
 
spin component  2
 
  0.1207
 
 occupancies and eigenvectors
 
  o =  0.1207  v =  0.0000  1.0000      0.0000  0.0000
  o =  0.1347  v =  1.0000  0.0000      0.0000  0.0000
 
atom =  13  type =  2  l = 0
 
 onsite density matrix
 
spin component  1
 
  0.1347
 
spin component  2
 
  0.1207
 
 occupancies and eigenvectors
 
  o =  0.1207  v =  0.0000  1.0000      0.0000  0.0000
  o =  0.1347  v =  1.0000  0.0000      0.0000  0.0000
 
atom =  14  type =  2  l = 0
 
 onsite density matrix
 
spin component  1
 
  0.1347
 
spin component  2
 
  0.1207
 
 occupancies and eigenvectors
 
  o =  0.1207  v =  0.0000  1.0000      0.0000  0.0000
  o =  0.1347  v =  1.0000  0.0000      0.0000  0.0000
 
atom =  15  type =  2  l = 0
 
 onsite density matrix
 
spin component  1
 
  0.1347
 
spin component  2
 
  0.1207
 
 occupancies and eigenvectors
 
  o =  0.1207  v =  0.0000  1.0000      0.0000  0.0000
  o =  0.1347  v =  1.0000  0.0000      0.0000  0.0000
 
atom =  16  type =  2  l = 0
 
 onsite density matrix
 
spin component  1
 
  0.1347
 
spin component  2
 
  0.1207
 
 occupancies and eigenvectors
 
  o =  0.1207  v =  0.0000  1.0000      0.0000  0.0000
  o =  0.1347  v =  1.0000  0.0000      0.0000  0.0000
 
atom =  17  type =  2  l = 0
 
 onsite density matrix
 
spin component  1
 
  0.1347
 
spin component  2
 
  0.1207
 
 occupancies and eigenvectors
 
  o =  0.1207  v =  0.0000  1.0000      0.0000  0.0000
  o =  0.1347  v =  1.0000  0.0000      0.0000  0.0000
 
atom =  18  type =  2  l = 0
 
 onsite density matrix
 
spin component  1
 
  0.1347
 
spin component  2
 
  0.1207
 
 occupancies and eigenvectors
 
  o =  0.1207  v =  0.0000  1.0000      0.0000  0.0000
  o =  0.1347  v =  1.0000  0.0000      0.0000  0.0000
 
atom =  19  type =  2  l = 0
 
 onsite density matrix
 
spin component  1
 
  0.1347
 
spin component  2
 
  0.1207
 
 occupancies and eigenvectors
 
  o =  0.1207  v =  0.0000  1.0000      0.0000  0.0000
  o =  0.1347  v =  1.0000  0.0000      0.0000  0.0000
 
atom =  20  type =  2  l = 0
 
 onsite density matrix
 
spin component  1
 
  0.1347
 
spin component  2
 
  0.1207
 
 occupancies and eigenvectors
 
  o =  0.1207  v =  0.0000  1.0000      0.0000  0.0000
  o =  0.1347  v =  1.0000  0.0000      0.0000  0.0000
 
atom =  21  type =  2  l = 0
 
 onsite density matrix
 
spin component  1
 
  0.1347
 
spin component  2
 
  0.1207
 
 occupancies and eigenvectors
 
  o =  0.1207  v =  0.0000  1.0000      0.0000  0.0000
  o =  0.1347  v =  1.0000  0.0000      0.0000  0.0000
 
atom =  22  type =  2  l = 0
 
 onsite density matrix
 
spin component  1
 
  0.1347
 
spin component  2
 
  0.1207
 
 occupancies and eigenvectors
 
  o =  0.1207  v =  0.0000  1.0000      0.0000  0.0000
  o =  0.1347  v =  1.0000  0.0000      0.0000  0.0000
 
atom =  23  type =  2  l = 0
 
 onsite density matrix
 
spin component  1
 
  0.1347
 
spin component  2
 
  0.1207
 
 occupancies and eigenvectors
 
  o =  0.1207  v =  0.0000  1.0000      0.0000  0.0000
  o =  0.1347  v =  1.0000  0.0000      0.0000  0.0000
 
atom =  24  type =  2  l = 0
 
 onsite density matrix
 
spin component  1
 
  0.1347
 
spin component  2
 
  0.1207
 
 occupancies and eigenvectors
 
  o =  0.1207  v =  0.0000  1.0000      0.0000  0.0000
  o =  0.1347  v =  1.0000  0.0000      0.0000  0.0000
 
atom =  25  type =  2  l = 0
 
 onsite density matrix
 
spin component  1
 
  0.1347
 
spin component  2
 
  0.1207
 
 occupancies and eigenvectors
 
  o =  0.1207  v =  0.0000  1.0000      0.0000  0.0000
  o =  0.1347  v =  1.0000  0.0000      0.0000  0.0000
 
atom =  26  type =  3  l = 2
 
 onsite density matrix
 
spin component  1
 
  0.4151  0.0000  0.0000  0.0000  0.0000
  0.0000  0.4151  0.0000  0.0000  0.0000
  0.0000  0.0000  0.4151  0.0000 -0.0000
  0.0000  0.0000  0.0000  0.4151  0.0000
  0.0000  0.0000 -0.0000  0.0000  0.4151
 
spin component  2
 
  0.3756  0.0000  0.0000  0.0000  0.0000
  0.0000  0.3756  0.0000  0.0000  0.0000
  0.0000  0.0000  0.3756  0.0000 -0.0000
  0.0000  0.0000  0.0000  0.3756  0.0000
  0.0000  0.0000 -0.0000  0.0000  0.3756
 
 occupancies and eigenvectors
 
  o =  0.3756  v =  0.0000  0.0000  0.0000  0.0000  0.0000  0.0000  0.0000  1.0000  0.0000  0.0000      0.0000  0.0000  0.0000  0.0000  0.0000  0.0000  0.0000  0.0000  0.0000  0.0000
  o =  0.3756  v =  0.0000  0.0000  0.0000  0.0000  0.0000  1.0000  0.0000  0.0000  0.0000  0.0000      0.0000  0.0000  0.0000  0.0000  0.0000  0.0000  0.0000  0.0000  0.0000  0.0000
  o =  0.3756  v =  0.0000  0.0000  0.0000  0.0000  0.0000  0.0000  1.0000  0.0000  0.0000  0.0000      0.0000  0.0000  0.0000  0.0000  0.0000  0.0000  0.0000  0.0000  0.0000  0.0000
  o =  0.3756  v =  0.0000  0.0000  0.0000  0.0000  0.0000  0.0000  0.0000  0.0000  1.0000  0.0000      0.0000  0.0000  0.0000  0.0000  0.0000  0.0000  0.0000  0.0000  0.0000  0.0000
  o =  0.3756  v =  0.0000  0.0000  0.0000  0.0000  0.0000  0.0000  0.0000  0.0000  0.0000  1.0000      0.0000  0.0000  0.0000  0.0000  0.0000  0.0000  0.0000  0.0000  0.0000  0.0000
  o =  0.4151  v =  0.0000  0.0000  1.0000  0.0000  0.0000  0.0000  0.0000  0.0000  0.0000  0.0000      0.0000  0.0000  0.0000  0.0000  0.0000  0.0000  0.0000  0.0000  0.0000  0.0000
  o =  0.4151  v =  0.0000  1.0000  0.0000  0.0000  0.0000  0.0000  0.0000  0.0000  0.0000  0.0000      0.0000  0.0000  0.0000  0.0000  0.0000  0.0000  0.0000  0.0000  0.0000  0.0000
  o =  0.4151  v =  1.0000  0.0000  0.0000  0.0000  0.0000  0.0000  0.0000  0.0000  0.0000  0.0000      0.0000  0.0000  0.0000  0.0000  0.0000  0.0000  0.0000  0.0000  0.0000  0.0000
  o =  0.4151  v =  0.0000  0.0000  0.0000  1.0000  0.0000  0.0000  0.0000  0.0000  0.0000  0.0000      0.0000  0.0000  0.0000  0.0000  0.0000  0.0000  0.0000  0.0000  0.0000  0.0000
  o =  0.4151  v =  0.0000  0.0000  0.0000  0.0000  1.0000  0.0000  0.0000  0.0000  0.0000  0.0000      0.0000  0.0000  0.0000  0.0000  0.0000  0.0000  0.0000  0.0000  0.0000  0.0000
 
atom =  27  type =  3  l = 2
 
 onsite density matrix
 
spin component  1
 
  0.4151  0.0000  0.0000  0.0000  0.0000
  0.0000  0.4151  0.0000  0.0000  0.0000
  0.0000  0.0000  0.4151  0.0000 -0.0000
  0.0000  0.0000  0.0000  0.4151  0.0000
  0.0000  0.0000 -0.0000  0.0000  0.4151
 
spin component  2
 
  0.3756  0.0000  0.0000  0.0000  0.0000
  0.0000  0.3756  0.0000  0.0000  0.0000
  0.0000  0.0000  0.3756  0.0000 -0.0000
  0.0000  0.0000  0.0000  0.3756  0.0000
  0.0000  0.0000 -0.0000  0.0000  0.3756
 
 occupancies and eigenvectors
 
  o =  0.3756  v =  0.0000  0.0000  0.0000  0.0000  0.0000  0.0000  0.0000  1.0000  0.0000  0.0000      0.0000  0.0000  0.0000  0.0000  0.0000  0.0000  0.0000  0.0000  0.0000  0.0000
  o =  0.3756  v =  0.0000  0.0000  0.0000  0.0000  0.0000  1.0000  0.0000  0.0000  0.0000  0.0000      0.0000  0.0000  0.0000  0.0000  0.0000  0.0000  0.0000  0.0000  0.0000  0.0000
  o =  0.3756  v =  0.0000  0.0000  0.0000  0.0000  0.0000  0.0000  1.0000  0.0000  0.0000  0.0000      0.0000  0.0000  0.0000  0.0000  0.0000  0.0000  0.0000  0.0000  0.0000  0.0000
  o =  0.3756  v =  0.0000  0.0000  0.0000  0.0000  0.0000  0.0000  0.0000  0.0000  1.0000  0.0000      0.0000  0.0000  0.0000  0.0000  0.0000  0.0000  0.0000  0.0000  0.0000  0.0000
  o =  0.3756  v =  0.0000  0.0000  0.0000  0.0000  0.0000  0.0000  0.0000  0.0000  0.0000  1.0000      0.0000  0.0000  0.0000  0.0000  0.0000  0.0000  0.0000  0.0000  0.0000  0.0000
  o =  0.4151  v =  0.0000  0.0000  1.0000  0.0000  0.0000  0.0000  0.0000  0.0000  0.0000  0.0000      0.0000  0.0000  0.0000  0.0000  0.0000  0.0000  0.0000  0.0000  0.0000  0.0000
  o =  0.4151  v =  0.0000  1.0000  0.0000  0.0000  0.0000  0.0000  0.0000  0.0000  0.0000  0.0000      0.0000  0.0000  0.0000  0.0000  0.0000  0.0000  0.0000  0.0000  0.0000  0.0000
  o =  0.4151  v =  1.0000  0.0000  0.0000  0.0000  0.0000  0.0000  0.0000  0.0000  0.0000  0.0000      0.0000  0.0000  0.0000  0.0000  0.0000  0.0000  0.0000  0.0000  0.0000  0.0000
  o =  0.4151  v =  0.0000  0.0000  0.0000  1.0000  0.0000  0.0000  0.0000  0.0000  0.0000  0.0000      0.0000  0.0000  0.0000  0.0000  0.0000  0.0000  0.0000  0.0000  0.0000  0.0000
  o =  0.4151  v =  0.0000  0.0000  0.0000  0.0000  1.0000  0.0000  0.0000  0.0000  0.0000  0.0000      0.0000  0.0000  0.0000  0.0000  0.0000  0.0000  0.0000  0.0000  0.0000  0.0000
 
atom =  28  type =  4  l = 0
 
 onsite density matrix
 
spin component  1
 
  0.8936
 
spin component  2
 
  0.7311
 
 occupancies and eigenvectors
 
  o =  0.7311  v =  0.0000  1.0000      0.0000  0.0000
  o =  0.8936  v =  1.0000  0.0000      0.0000  0.0000
 
atom =  29  type =  4  l = 0
 
 onsite density matrix
 
spin component  1
 
  0.8936
 
spin component  2
 
  0.7311
 
 occupancies and eigenvectors
 
  o =  0.7311  v =  0.0000  1.0000      0.0000  0.0000
  o =  0.8936  v =  1.0000  0.0000      0.0000  0.0000
 
atom =  30  type =  4  l = 0
 
 onsite density matrix
 
spin component  1
 
  0.8936
 
spin component  2
 
  0.7311
 
 occupancies and eigenvectors
 
  o =  0.7311  v =  0.0000  1.0000      0.0000  0.0000
  o =  0.8936  v =  1.0000  0.0000      0.0000  0.0000
 
atom =  31  type =  4  l = 0
 
 onsite density matrix
 
spin component  1
 
  0.8936
 
spin component  2
 
  0.7311
 
 occupancies and eigenvectors
 
  o =  0.7311  v =  0.0000  1.0000      0.0000  0.0000
  o =  0.8936  v =  1.0000  0.0000      0.0000  0.0000
 
atom =  32  type =  4  l = 0
 
 onsite density matrix
 
spin component  1
 
  0.8936
 
spin component  2
 
  0.7311
 
 occupancies and eigenvectors
 
  o =  0.7311  v =  0.0000  1.0000      0.0000  0.0000
  o =  0.8936  v =  1.0000  0.0000      0.0000  0.0000
 
atom =  33  type =  4  l = 0
 
 onsite density matrix
 
spin component  1
 
  0.8936
 
spin component  2
 
  0.7311
 
 occupancies and eigenvectors
 
  o =  0.7311  v =  0.0000  1.0000      0.0000  0.0000
  o =  0.8936  v =  1.0000  0.0000      0.0000  0.0000
 
atom =  34  type =  4  l = 0
 
 onsite density matrix
 
spin component  1
 
  0.8936
 
spin component  2
 
  0.7311
 
 occupancies and eigenvectors
 
  o =  0.7311  v =  0.0000  1.0000      0.0000  0.0000
  o =  0.8936  v =  1.0000  0.0000      0.0000  0.0000
 
atom =  35  type =  4  l = 0
 
 onsite density matrix
 
spin component  1
 
  0.8936
 
spin component  2
 
  0.7311
 
 occupancies and eigenvectors
 
  o =  0.7311  v =  0.0000  1.0000      0.0000  0.0000
  o =  0.8936  v =  1.0000  0.0000      0.0000  0.0000
 
atom =  36  type =  4  l = 0
 
 onsite density matrix
 
spin component  1
 
  0.8936
 
spin component  2
 
  0.7311
 
 occupancies and eigenvectors
 
  o =  0.7311  v =  0.0000  1.0000      0.0000  0.0000
  o =  0.8936  v =  1.0000  0.0000      0.0000  0.0000
 
atom =  37  type =  4  l = 0
 
 onsite density matrix
 
spin component  1
 
  0.8936
 
spin component  2
 
  0.7311
 
 occupancies and eigenvectors
 
  o =  0.7311  v =  0.0000  1.0000      0.0000  0.0000
  o =  0.8936  v =  1.0000  0.0000      0.0000  0.0000
 
atom =  38  type =  4  l = 0
 
 onsite density matrix
 
spin component  1
 
  0.8936
 
spin component  2
 
  0.7311
 
 occupancies and eigenvectors
 
  o =  0.7311  v =  0.0000  1.0000      0.0000  0.0000
  o =  0.8936  v =  1.0000  0.0000      0.0000  0.0000
 
atom =  39  type =  4  l = 0
 
 onsite density matrix
 
spin component  1
 
  0.8936
 
spin component  2
 
  0.7311
 
 occupancies and eigenvectors
 
  o =  0.7311  v =  0.0000  1.0000      0.0000  0.0000
  o =  0.8936  v =  1.0000  0.0000      0.0000  0.0000
 
atom =  40  type =  4  l = 0
 
 onsite density matrix
 
spin component  1
 
  0.8936
 
spin component  2
 
  0.7311
 
 occupancies and eigenvectors
 
  o =  0.7311  v =  0.0000  1.0000      0.0000  0.0000
  o =  0.8936  v =  1.0000  0.0000      0.0000  0.0000
 
atom =  41  type =  4  l = 0
 
 onsite density matrix
 
spin component  1
 
  0.8936
 
spin component  2
 
  0.7311
 
 occupancies and eigenvectors
 
  o =  0.7311  v =  0.0000  1.0000      0.0000  0.0000
  o =  0.8936  v =  1.0000  0.0000      0.0000  0.0000
 
atom =  42  type =  4  l = 0
 
 onsite density matrix
 
spin component  1
 
  0.8936
 
spin component  2
 
  0.7311
 
 occupancies and eigenvectors
 
  o =  0.7311  v =  0.0000  1.0000      0.0000  0.0000
  o =  0.8936  v =  1.0000  0.0000      0.0000  0.0000
 
atom =  43  type =  4  l = 0
 
 onsite density matrix
 
spin component  1
 
  0.8936
 
spin component  2
 
  0.7311
 
 occupancies and eigenvectors
 
  o =  0.7311  v =  0.0000  1.0000      0.0000  0.0000
  o =  0.8936  v =  1.0000  0.0000      0.0000  0.0000
 
atom =  44  type =  4  l = 0
 
 onsite density matrix
 
spin component  1
 
  0.8936
 
spin component  2
 
  0.7311
 
 occupancies and eigenvectors
 
  o =  0.7311  v =  0.0000  1.0000      0.0000  0.0000
  o =  0.8936  v =  1.0000  0.0000      0.0000  0.0000
 
atom =  45  type =  4  l = 0
 
 onsite density matrix
 
spin component  1
 
  0.8936
 
spin component  2
 
  0.7311
 
 occupancies and eigenvectors
 
  o =  0.7311  v =  0.0000  1.0000      0.0000  0.0000
  o =  0.8936  v =  1.0000  0.0000      0.0000  0.0000
 
atom =  46  type =  4  l = 0
 
 onsite density matrix
 
spin component  1
 
  0.8936
 
spin component  2
 
  0.7311
 
 occupancies and eigenvectors
 
  o =  0.7311  v =  0.0000  1.0000      0.0000  0.0000
  o =  0.8936  v =  1.0000  0.0000      0.0000  0.0000
 
atom =  47  type =  4  l = 0
 
 onsite density matrix
 
spin component  1
 
  0.8936
 
spin component  2
 
  0.7311
 
 occupancies and eigenvectors
 
  o =  0.7311  v =  0.0000  1.0000      0.0000  0.0000
  o =  0.8936  v =  1.0000  0.0000      0.0000  0.0000
 
atom =  48  type =  4  l = 0
 
 onsite density matrix
 
spin component  1
 
  0.8936
 
spin component  2
 
  0.7311
 
 occupancies and eigenvectors
 
  o =  0.7311  v =  0.0000  1.0000      0.0000  0.0000
  o =  0.8936  v =  1.0000  0.0000      0.0000  0.0000
 
atom =  49  type =  4  l = 0
 
 onsite density matrix
 
spin component  1
 
  0.8936
 
spin component  2
 
  0.7311
 
 occupancies and eigenvectors
 
  o =  0.7311  v =  0.0000  1.0000      0.0000  0.0000
  o =  0.8936  v =  1.0000  0.0000      0.0000  0.0000
 
atom =  50  type =  4  l = 0
 
 onsite density matrix
 
spin component  1
 
  0.8936
 
spin component  2
 
  0.7311
 
 occupancies and eigenvectors
 
  o =  0.7311  v =  0.0000  1.0000      0.0000  0.0000
  o =  0.8936  v =  1.0000  0.0000      0.0000  0.0000
 
atom =  51  type =  4  l = 0
 
 onsite density matrix
 
spin component  1
 
  0.8936
 
spin component  2
 
  0.7311
 
 occupancies and eigenvectors
 
  o =  0.7311  v =  0.0000  1.0000      0.0000  0.0000
  o =  0.8936  v =  1.0000  0.0000      0.0000  0.0000
 
atom =  52  type =  4  l = 0
 
 onsite density matrix
 
spin component  1
 
  0.8936
 
spin component  2
 
  0.7311
 
 occupancies and eigenvectors
 
  o =  0.7311  v =  0.0000  1.0000      0.0000  0.0000
  o =  0.8936  v =  1.0000  0.0000      0.0000  0.0000
 
atom =  53  type =  4  l = 0
 
 onsite density matrix
 
spin component  1
 
  0.8936
 
spin component  2
 
  0.7311
 
 occupancies and eigenvectors
 
  o =  0.7311  v =  0.0000  1.0000      0.0000  0.0000
  o =  0.8936  v =  1.0000  0.0000      0.0000  0.0000
 
atom =  54  type =  4  l = 0
 
 onsite density matrix
 
spin component  1
 
  0.8936
 
spin component  2
 
  0.7311
 
 occupancies and eigenvectors
 
  o =  0.7311  v =  0.0000  1.0000      0.0000  0.0000
  o =  0.8936  v =  1.0000  0.0000      0.0000  0.0000
 
atom =  55  type =  4  l = 0
 
 onsite density matrix
 
spin component  1
 
  0.8936
 
spin component  2
 
  0.7311
 
 occupancies and eigenvectors
 
  o =  0.7311  v =  0.0000  1.0000      0.0000  0.0000
  o =  0.8936  v =  1.0000  0.0000      0.0000  0.0000
 
atom =  56  type =  4  l = 0
 
 onsite density matrix
 
spin component  1
 
  0.8936
 
spin component  2
 
  0.7311
 
 occupancies and eigenvectors
 
  o =  0.7311  v =  0.0000  1.0000      0.0000  0.0000
  o =  0.8936  v =  1.0000  0.0000      0.0000  0.0000
 
atom =  57  type =  4  l = 0
 
 onsite density matrix
 
spin component  1
 
  0.8936
 
spin component  2
 
  0.7311
 
 occupancies and eigenvectors
 
  o =  0.7311  v =  0.0000  1.0000      0.0000  0.0000
  o =  0.8936  v =  1.0000  0.0000      0.0000  0.0000
 
atom =  58  type =  4  l = 0
 
 onsite density matrix
 
spin component  1
 
  0.8936
 
spin component  2
 
  0.7311
 
 occupancies and eigenvectors
 
  o =  0.7311  v =  0.0000  1.0000      0.0000  0.0000
  o =  0.8936  v =  1.0000  0.0000      0.0000  0.0000
 
atom =  59  type =  4  l = 0
 
 onsite density matrix
 
spin component  1
 
  0.8936
 
spin component  2
 
  0.7311
 
 occupancies and eigenvectors
 
  o =  0.7311  v =  0.0000  1.0000      0.0000  0.0000
  o =  0.8936  v =  1.0000  0.0000      0.0000  0.0000
 
atom =  60  type =  4  l = 0
 
 onsite density matrix
 
spin component  1
 
  0.8936
 
spin component  2
 
  0.7311
 
 occupancies and eigenvectors
 
  o =  0.7311  v =  0.0000  1.0000      0.0000  0.0000
  o =  0.8936  v =  1.0000  0.0000      0.0000  0.0000
 
atom =  61  type =  4  l = 0
 
 onsite density matrix
 
spin component  1
 
  0.8936
 
spin component  2
 
  0.7311
 
 occupancies and eigenvectors
 
  o =  0.7311  v =  0.0000  1.0000      0.0000  0.0000
  o =  0.8936  v =  1.0000  0.0000      0.0000  0.0000
 
atom =  62  type =  4  l = 0
 
 onsite density matrix
 
spin component  1
 
  0.8936
 
spin component  2
 
  0.7311
 
 occupancies and eigenvectors
 
  o =  0.7311  v =  0.0000  1.0000      0.0000  0.0000
  o =  0.8936  v =  1.0000  0.0000      0.0000  0.0000
 
atom =  63  type =  4  l = 0
 
 onsite density matrix
 
spin component  1
 
  0.8936
 
spin component  2
 
  0.7311
 
 occupancies and eigenvectors
 
  o =  0.7311  v =  0.0000  1.0000      0.0000  0.0000
  o =  0.8936  v =  1.0000  0.0000      0.0000  0.0000
 
atom =  64  type =  4  l = 0
 
 onsite density matrix
 
spin component  1
 
  0.8936
 
spin component  2
 
  0.7311
 
 occupancies and eigenvectors
 
  o =  0.7311  v =  0.0000  1.0000      0.0000  0.0000
  o =  0.8936  v =  1.0000  0.0000      0.0000  0.0000
 
atom =  65  type =  4  l = 0
 
 onsite density matrix
 
spin component  1
 
  0.8936
 
spin component  2
 
  0.7311
 
 occupancies and eigenvectors
 
  o =  0.7311  v =  0.0000  1.0000      0.0000  0.0000
  o =  0.8936  v =  1.0000  0.0000      0.0000  0.0000
 
atom =  66  type =  4  l = 0
 
 onsite density matrix
 
spin component  1
 
  0.8936
 
spin component  2
 
  0.7311
 
 occupancies and eigenvectors
 
  o =  0.7311  v =  0.0000  1.0000      0.0000  0.0000
  o =  0.8936  v =  1.0000  0.0000      0.0000  0.0000
 
atom =  67  type =  4  l = 0
 
 onsite density matrix
 
spin component  1
 
  0.8936
 
spin component  2
 
  0.7311
 
 occupancies and eigenvectors
 
  o =  0.7311  v =  0.0000  1.0000      0.0000  0.0000
  o =  0.8936  v =  1.0000  0.0000      0.0000  0.0000
 
atom =  68  type =  4  l = 0
 
 onsite density matrix
 
spin component  1
 
  0.8936
 
spin component  2
 
  0.7311
 
 occupancies and eigenvectors
 
  o =  0.7311  v =  0.0000  1.0000      0.0000  0.0000
  o =  0.8936  v =  1.0000  0.0000      0.0000  0.0000
 
atom =  69  type =  4  l = 0
 
 onsite density matrix
 
spin component  1
 
  0.8936
 
spin component  2
 
  0.7311
 
 occupancies and eigenvectors
 
  o =  0.7311  v =  0.0000  1.0000      0.0000  0.0000
  o =  0.8936  v =  1.0000  0.0000      0.0000  0.0000
 
atom =  70  type =  4  l = 0
 
 onsite density matrix
 
spin component  1
 
  0.8936
 
spin component  2
 
  0.7311
 
 occupancies and eigenvectors
 
  o =  0.7311  v =  0.0000  1.0000      0.0000  0.0000
  o =  0.8936  v =  1.0000  0.0000      0.0000  0.0000
 
atom =  71  type =  4  l = 0
 
 onsite density matrix
 
spin component  1
 
  0.8936
 
spin component  2
 
  0.7311
 
 occupancies and eigenvectors
 
  o =  0.7311  v =  0.0000  1.0000      0.0000  0.0000
  o =  0.8936  v =  1.0000  0.0000      0.0000  0.0000
 
atom =  72  type =  4  l = 0
 
 onsite density matrix
 
spin component  1
 
  0.8936
 
spin component  2
 
  0.7311
 
 occupancies and eigenvectors
 
  o =  0.7311  v =  0.0000  1.0000      0.0000  0.0000
  o =  0.8936  v =  1.0000  0.0000      0.0000  0.0000
 
atom =  73  type =  4  l = 0
 
 onsite density matrix
 
spin component  1
 
  0.8936
 
spin component  2
 
  0.7311
 
 occupancies and eigenvectors
 
  o =  0.7311  v =  0.0000  1.0000      0.0000  0.0000
  o =  0.8936  v =  1.0000  0.0000      0.0000  0.0000
 
atom =  74  type =  4  l = 0
 
 onsite density matrix
 
spin component  1
 
  0.8936
 
spin component  2
 
  0.7311
 
 occupancies and eigenvectors
 
  o =  0.7311  v =  0.0000  1.0000      0.0000  0.0000
  o =  0.8936  v =  1.0000  0.0000      0.0000  0.0000
 
atom =  75  type =  4  l = 0
 
 onsite density matrix
 
spin component  1
 
  0.8936
 
spin component  2
 
  0.7311
 
 occupancies and eigenvectors
 
  o =  0.7311  v =  0.0000  1.0000      0.0000  0.0000
  o =  0.8936  v =  1.0000  0.0000      0.0000  0.0000
 
atom =  76  type =  4  l = 0
 
 onsite density matrix
 
spin component  1
 
  0.8936
 
spin component  2
 
  0.7311
 
 occupancies and eigenvectors
 
  o =  0.7311  v =  0.0000  1.0000      0.0000  0.0000
  o =  0.8936  v =  1.0000  0.0000      0.0000  0.0000
 
atom =  77  type =  4  l = 0
 
 onsite density matrix
 
spin component  1
 
  0.8936
 
spin component  2
 
  0.7311
 
 occupancies and eigenvectors
 
  o =  0.7311  v =  0.0000  1.0000      0.0000  0.0000
  o =  0.8936  v =  1.0000  0.0000      0.0000  0.0000
 
atom =  78  type =  4  l = 0
 
 onsite density matrix
 
spin component  1
 
  0.8936
 
spin component  2
 
  0.7311
 
 occupancies and eigenvectors
 
  o =  0.7311  v =  0.0000  1.0000      0.0000  0.0000
  o =  0.8936  v =  1.0000  0.0000      0.0000  0.0000
 
atom =  79  type =  4  l = 0
 
 onsite density matrix
 
spin component  1
 
  0.8936
 
spin component  2
 
  0.7311
 
 occupancies and eigenvectors
 
  o =  0.7311  v =  0.0000  1.0000      0.0000  0.0000
  o =  0.8936  v =  1.0000  0.0000      0.0000  0.0000
 
atom =  80  type =  4  l = 0
 
 onsite density matrix
 
spin component  1
 
  0.8936
 
spin component  2
 
  0.7311
 
 occupancies and eigenvectors
 
  o =  0.7311  v =  0.0000  1.0000      0.0000  0.0000
  o =  0.8936  v =  1.0000  0.0000      0.0000  0.0000
 
atom =  81  type =  4  l = 0
 
 onsite density matrix
 
spin component  1
 
  0.8936
 
spin component  2
 
  0.7311
 
 occupancies and eigenvectors
 
  o =  0.7311  v =  0.0000  1.0000      0.0000  0.0000
  o =  0.8936  v =  1.0000  0.0000      0.0000  0.0000
 
atom =  82  type =  4  l = 0
 
 onsite density matrix
 
spin component  1
 
  0.8936
 
spin component  2
 
  0.7311
 
 occupancies and eigenvectors
 
  o =  0.7311  v =  0.0000  1.0000      0.0000  0.0000
  o =  0.8936  v =  1.0000  0.0000      0.0000  0.0000
 
atom =  83  type =  4  l = 0
 
 onsite density matrix
 
spin component  1
 
  0.8936
 
spin component  2
 
  0.7311
 
 occupancies and eigenvectors
 
  o =  0.7311  v =  0.0000  1.0000      0.0000  0.0000
  o =  0.8936  v =  1.0000  0.0000      0.0000  0.0000
 
atom =  84  type =  4  l = 0
 
 onsite density matrix
 
spin component  1
 
  0.8936
 
spin component  2
 
  0.7311
 
 occupancies and eigenvectors
 
  o =  0.7311  v =  0.0000  1.0000      0.0000  0.0000
  o =  0.8936  v =  1.0000  0.0000      0.0000  0.0000
 
atom =  85  type =  4  l = 0
 
 onsite density matrix
 
spin component  1
 
  0.8936
 
spin component  2
 
  0.7311
 
 occupancies and eigenvectors
 
  o =  0.7311  v =  0.0000  1.0000      0.0000  0.0000
  o =  0.8936  v =  1.0000  0.0000      0.0000  0.0000
 
atom =  86  type =  4  l = 0
 
 onsite density matrix
 
spin component  1
 
  0.8936
 
spin component  2
 
  0.7311
 
 occupancies and eigenvectors
 
  o =  0.7311  v =  0.0000  1.0000      0.0000  0.0000
  o =  0.8936  v =  1.0000  0.0000      0.0000  0.0000
 
atom =  87  type =  4  l = 0
 
 onsite density matrix
 
spin component  1
 
  0.8936
 
spin component  2
 
  0.7311
 
 occupancies and eigenvectors
 
  o =  0.7311  v =  0.0000  1.0000      0.0000  0.0000
  o =  0.8936  v =  1.0000  0.0000      0.0000  0.0000
 
atom =  88  type =  4  l = 0
 
 onsite density matrix
 
spin component  1
 
  0.8936
 
spin component  2
 
  0.7311
 
 occupancies and eigenvectors
 
  o =  0.7311  v =  0.0000  1.0000      0.0000  0.0000
  o =  0.8936  v =  1.0000  0.0000      0.0000  0.0000
 
atom =  89  type =  4  l = 0
 
 onsite density matrix
 
spin component  1
 
  0.8936
 
spin component  2
 
  0.7311
 
 occupancies and eigenvectors
 
  o =  0.7311  v =  0.0000  1.0000      0.0000  0.0000
  o =  0.8936  v =  1.0000  0.0000      0.0000  0.0000
 
atom =  90  type =  4  l = 0
 
 onsite density matrix
 
spin component  1
 
  0.8936
 
spin component  2
 
[...]
     -0.00900      0.00085      0.00181        -0.000177      0.000017      0.000036
     -0.00918      0.00138      0.00042        -0.000181      0.000027      0.000008
      0.00344      0.00500      0.02130         0.000068      0.000098      0.000419
     -0.00319      0.00150     -0.00117        -0.000063      0.000030     -0.000023
     -0.00132      0.01442      0.00403        -0.000026      0.000284      0.000079
     -0.00813      0.00031      0.00131        -0.000160      0.000006      0.000026
     -0.00720      0.00453      0.00368        -0.000142      0.000089      0.000072
     -0.00583      0.00168      0.00327        -0.000115      0.000033      0.000064
     -0.00437      0.00200      0.00079        -0.000086      0.000039      0.000015
     -0.00280      0.00608     -0.00586        -0.000055      0.000120     -0.000115
     -0.00713      0.00258      0.00397        -0.000140      0.000051      0.000078
     -0.00280      0.00140      0.00322        -0.000055      0.000027      0.000063
     -0.00675      0.00136     -0.00060        -0.000133      0.000027     -0.000012
     -0.00317      0.00166      0.00073        -0.000062      0.000033      0.000014
     -0.00862      0.00282      0.00497        -0.000170      0.000056      0.000098
     -0.00265      0.00288      0.00150        -0.000052      0.000057      0.000029
     -0.00159      0.00092      0.00002        -0.000031      0.000018      0.000000
      0.00133      0.00278      0.00023         0.000026      0.000055      0.000004
      0.00101      0.01668      0.01386         0.000020      0.000328      0.000273
     -0.00445      0.00119      0.00349        -0.000088      0.000023      0.000069
     -0.00682      0.03237     -0.00796        -0.000134      0.000637     -0.000157
     -0.00008      0.00598      0.00181        -0.000001      0.000118      0.000036
     -0.00587      0.00020      0.00122        -0.000115      0.000004      0.000024
     -0.00275      0.00114      0.00260        -0.000054      0.000022      0.000051
     -0.00343      0.00060      0.00121        -0.000067      0.000012      0.000024
     -0.00110      0.00158      0.00088        -0.000022      0.000031      0.000017
     -0.02325      0.01300      0.01864        -0.000457      0.000256      0.000367
     -0.00114      0.00802     -0.00522        -0.000023      0.000158     -0.000103
     -0.00616      0.00082      0.00149        -0.000121      0.000016      0.000029
     -0.00583      0.00073      0.00241        -0.000115      0.000014      0.000047
     -0.05767      0.06740     -0.06619        -0.001135      0.001326     -0.001302
     -0.00518      0.00309      0.00378        -0.000102      0.000061      0.000074
     -0.00631      0.00351      0.00197        -0.000124      0.000069      0.000039
     -0.00344      0.00181      0.00013        -0.000068      0.000036      0.000003
     -0.00842      0.00035      0.00028        -0.000166      0.000007      0.000005
     -0.00815      0.00162      0.00599        -0.000160      0.000032      0.000118
     -0.02743      0.01068      0.00189        -0.000540      0.000210      0.000037
     -0.00620      0.00049     -0.00132        -0.000122      0.000010     -0.000026
     -0.00771      0.00316      0.00371        -0.000152      0.000062      0.000073
     -0.00208      0.02744      0.00404        -0.000041      0.000540      0.000079
     -0.00490      0.00010      0.00112        -0.000096      0.000002      0.000022
     -0.00459      0.00071      0.00010        -0.000090      0.000014      0.000002
     -0.03543      0.08714      0.01227        -0.000697      0.001714      0.000241
     -0.01971      0.00550      0.01488        -0.000388      0.000108      0.000293
     -0.00990      0.00182      0.00285        -0.000195      0.000036      0.000056
     -0.00476      0.00051     -0.00111        -0.000094      0.000010     -0.000022
     -0.02386      0.01211      0.00298        -0.000469      0.000238      0.000059
     -0.03945      0.05649     -0.05051        -0.000776      0.001111     -0.000994
     -0.00499      0.00046      0.00155        -0.000098      0.000009      0.000031
     -0.00588      0.00039      0.00247        -0.000116      0.000008      0.000049
     -0.00062      0.05428      0.04996        -0.000012      0.001068      0.000983
     -0.03974      0.08770      0.01278        -0.000782      0.001725      0.000251
     -0.00451      0.00036      0.00243        -0.000089      0.000007      0.000048
     -0.00436      0.00020      0.00065        -0.000086      0.000004      0.000013
     -0.00969      0.02871     -0.00211        -0.000191      0.000565     -0.000041
     -0.01296      0.00145      0.00374        -0.000255      0.000028      0.000074
     -0.00351      0.00069      0.00003        -0.000069      0.000014      0.000000
     -0.01677      0.00585      0.00628        -0.000330      0.000115      0.000124
     -0.01257      0.00464      0.00639        -0.000247      0.000091      0.000126
      0.00045      0.06640      0.08848         0.000009      0.001306      0.001741
     -0.00418      0.00104      0.00197        -0.000082      0.000021      0.000039
     -0.00418      0.00047      0.00137        -0.000082      0.000009      0.000027
      0.00376      0.00763      0.00408         0.000074      0.000150      0.000080
     -0.01324      0.00311      0.00523        -0.000260      0.000061      0.000103
     -0.00183      0.00378     -0.00449        -0.000036      0.000074     -0.000088
     -0.00377      0.00157     -0.00117        -0.000074      0.000031     -0.000023
     -0.00369      0.00147      0.00189        -0.000073      0.000029      0.000037
     -0.00946      0.00655      0.00482        -0.000186      0.000129      0.000095
      0.00656      0.00649      0.00245         0.000129      0.000128      0.000048
     -0.00274      0.00161     -0.00152        -0.000054      0.000032     -0.000030
     -0.00625      0.00268      0.00231        -0.000123      0.000053      0.000045
 -----------------------------------------------------------------------------------
 CHAIN + TOTAL  (eV/Angst)
 ----------------------------------------------
      0.00003     -0.00007     -0.00137
     -0.00314     -0.00236      0.00063
     -0.00343     -0.00005      0.00119
      0.00264      0.00015      0.00123
     -0.00015      0.00023     -0.00077
     -0.00057      0.00055      0.00076
     -0.00050      0.00024      0.00114
      0.00027     -0.00015     -0.00181
     -0.00099     -0.00243     -0.00339
     -0.00306      0.00005     -0.00105
     -0.00212     -0.00013     -0.00141
      0.00233      0.00017      0.00052
      0.00161      0.00000      0.00076
     -0.00164      0.00817      0.00027
     -0.00046      0.00337      0.00067
      0.00088     -0.00071      0.00035
      0.00038     -0.00251     -0.00036
      0.00090      0.00048     -0.00035
      0.00071      0.00009     -0.00040
      0.00056      0.00009     -0.00042
     -0.00295      0.00011      0.00118
     -0.00031      0.00011      0.00199
      0.00159      0.00032      0.00123
      0.00071      0.00013     -0.00120
      0.00131     -0.00032     -0.00046
     -0.00613      0.00121      0.01369
      0.01391     -0.00071     -0.00521
     -0.00643     -0.00295      0.00264
     -0.00395      0.00642      0.00130
     -0.00086     -0.00196      0.00088
     -0.00040      0.00146      0.00080
     -0.00103      0.00170     -0.00169
     -0.00017     -0.00761     -0.00043
      0.00084     -0.00425     -0.00175
     -0.00063      0.00076     -0.00341
     -0.00024      0.00125     -0.00190
     -0.00110     -0.00396     -0.00363
      0.00073      0.00212     -0.00301
      0.00096     -0.00302     -0.00387
      0.00001     -0.00416      0.00100
      0.00019     -0.00039     -0.00080
     -0.00058     -0.00353     -0.00011
     -0.00290      0.00074      0.00027
     -0.00251      0.00087      0.00114
     -0.00429     -0.00069      0.00294
      0.00377     -0.00221      0.00211
      0.00057      0.00025      0.00315
     -0.00053      0.00192     -0.00046
     -0.00044     -0.00597      0.00044
     -0.00031      0.00042      0.00068
     -0.00307     -0.00051      0.00140
      0.00308      0.00120     -0.00173
     -0.00017     -0.00224     -0.00187
      0.00355      0.00590     -0.00146
      0.00284      0.00326     -0.00134
      0.00229      0.00024      0.00056
      0.00352     -0.00553      0.00177
      0.00375      0.00792      0.00398
      0.00227      0.00094      0.00230
      0.00079      0.00014      0.00500
     -0.00173     -0.00339      0.00572
     -0.00225      0.00048      0.00271
     -0.00277      0.00013      0.00353
      0.00005      0.00030     -0.00138
     -0.00226      0.00110     -0.00161
      0.00016      0.00937     -0.00369
     -0.00213      0.00285     -0.00431
     -0.00182      0.00030     -0.00170
     -0.00213     -0.00297     -0.00452
     -0.00222      0.00215      0.00096
      0.00156      0.00100      0.00048
      0.00183      0.00095      0.00080
      0.00217      0.00276      0.00032
      0.00142     -0.00012     -0.00184
      0.00559      0.00015     -0.00157
      0.00193      0.00008     -0.00063
      0.00358      0.00131      0.00052
     -0.00277     -0.00107      0.00066
      0.00085      0.00018     -0.00106
      0.00164      0.00146     -0.00057
      0.00439      0.00406     -0.00150
     -0.00152     -0.00190     -0.00259
      0.00245      0.00139     -0.00241
     -0.00176     -0.00052      0.00131
     -0.00002     -0.00002      0.00042
     -0.00073     -0.00707     -0.00043
      0.00042      0.00192     -0.00153
     -0.00125      0.00135      0.00006
      0.00011     -0.00203      0.00070
     -0.00521     -0.00058     -0.00157
     -0.00655     -0.00421     -0.00111
      0.00178     -0.00040      0.00186
      0.00139      0.00002      0.00308
 ----------------------------------------------
 Quasi-Newton relaxation of ions (Broydens 2nd method)
  g(Force)  = 0.733E-03   g(Stress)= 0.000E+00

 retain information from N=  4 steps
 eigenvalues of (default step * inverse Hessian matrix)
  average eigenvalue of G=   5.2160
 eigenvalue spectrum of G is  6.2957  6.2957  6.2562  2.0167


--------------------------------------------------------------------------------------------------------


  
 reached required accuracy - stopping structural energy minimisation
     LOOP+:  cpu time    432.7274: real time    435.4303
    4ORBIT:  cpu time      0.0000: real time      0.0000



 total charge

# of ion       s       p       d       tot
------------------------------------------
    1        2.119   0.335   0.000   2.453
    2        0.424   6.573   2.832   9.829
    3        0.423   6.569   2.825   9.818
    4        0.424   6.574   2.826   9.824
    5        0.425   6.577   2.831   9.833
    6        0.422   6.576   2.812   9.811
    7        0.422   6.577   2.810   9.809
    8        0.422   6.576   2.811   9.810
    9        0.425   6.582   2.821   9.828
   10        0.422   6.571   2.830   9.823
   11        0.425   6.572   2.851   9.848
   12        0.426   6.574   2.858   9.857
   13        0.427   6.572   2.871   9.871
   14        0.423   6.615   2.757   9.795
   15        0.422   6.612   2.751   9.785
   16        0.419   6.607   2.744   9.771
   17        0.420   6.610   2.741   9.771
   18        0.419   6.566   2.838   9.824
   19        0.419   6.580   2.780   9.779
   20        0.419   6.580   2.787   9.785
   21        0.419   6.559   2.845   9.823
   22        0.418   6.563   2.808   9.789
   23        0.419   6.579   2.784   9.783
   24        0.419   6.577   2.788   9.784
   25        0.417   6.573   2.782   9.773
   26        0.489   6.631   3.927  11.047
   27        0.489   6.630   3.924  11.043
   28        1.574   3.476   0.000   5.050
   29        1.574   3.476   0.000   5.050
   30        1.565   3.490   0.000   5.055
   31        1.565   3.491   0.000   5.056
   32        1.565   3.490   0.000   5.054
   33        1.565   3.491   0.000   5.056
   34        1.574   3.479   0.000   5.053
   35        1.575   3.474   0.000   5.049
   36        1.575   3.476   0.000   5.051
   37        1.574   3.482   0.000   5.057
   38        1.581   3.455   0.000   5.036
   39        1.584   3.445   0.000   5.029
   40        1.584   3.446   0.000   5.030
   41        1.580   3.458   0.000   5.039
   42        1.577   3.461   0.000   5.038
   43        1.575   3.465   0.000   5.040
   44        1.575   3.468   0.000   5.043
   45        1.577   3.461   0.000   5.038
   46        1.576   3.466   0.000   5.042
   47        1.575   3.473   0.000   5.048
   48        1.575   3.474   0.000   5.050
   49        1.578   3.472   0.000   5.050
   50        1.566   3.489   0.000   5.055
   51        1.565   3.494   0.000   5.059
   52        1.565   3.496   0.000   5.061
   53        1.564   3.479   0.000   5.042
   54        1.580   3.455   0.000   5.034
   55        1.580   3.454   0.000   5.034
   56        1.580   3.451   0.000   5.031
   57        1.579   3.453   0.000   5.032
   58        1.576   3.474   0.000   5.050
   59        1.577   3.468   0.000   5.045
   60        1.577   3.464   0.000   5.041
   61        1.576   3.471   0.000   5.046
   62        1.575   3.476   0.000   5.051
   63        1.577   3.468   0.000   5.045
   64        1.577   3.468   0.000   5.045
   65        1.571   3.490   0.000   5.061
   66        1.578   3.469   0.000   5.047
   67        1.576   3.474   0.000   5.049
   68        1.576   3.472   0.000   5.048
   69        1.577   3.469   0.000   5.046
   70        1.562   3.481   0.000   5.043
   71        1.565   3.495   0.000   5.060
   72        1.565   3.494   0.000   5.060
   73        1.562   3.486   0.000   5.049
   74        1.568   3.495   0.000   5.063
   75        1.575   3.472   0.000   5.047
   76        1.575   3.473   0.000   5.047
   77        1.575   3.470   0.000   5.045
   78        1.581   3.469   0.000   5.050
   79        1.580   3.468   0.000   5.049
   80        1.581   3.470   0.000   5.050
   81        1.581   3.470   0.000   5.051
   82        1.563   3.486   0.000   5.049
   83        1.564   3.498   0.000   5.062
   84        1.564   3.496   0.000   5.060
   85        1.565   3.492   0.000   5.056
   86        1.565   3.490   0.000   5.055
   87        1.565   3.488   0.000   5.053
   88        1.565   3.490   0.000   5.054
   89        1.565   3.488   0.000   5.053
   90        1.582   3.449   0.000   5.031
   91        1.583   3.447   0.000   5.030
   92        1.583   3.449   0.000   5.032
   93        1.582   3.455   0.000   5.036
--------------------------------------------------
tot        117.065 400.785  75.236 593.086



 magnetization (x)

# of ion       s       p       d       tot
------------------------------------------
    1       -0.000  -0.000   0.000  -0.000
    2       -0.000   0.000  -0.000  -0.000
    3       -0.000  -0.000   0.000   0.000
    4        0.000  -0.000  -0.000  -0.000
    5        0.000   0.000   0.000   0.000
    6       -0.000  -0.000  -0.000  -0.000
    7       -0.000  -0.000   0.000   0.000
    8        0.000  -0.000   0.000  -0.000
    9       -0.000  -0.000  -0.000  -0.000
   10        0.000   0.000   0.000   0.000
   11        0.000  -0.000  -0.000  -0.000
   12        0.000   0.000  -0.000  -0.000
   13        0.000   0.000   0.000   0.000
   14        0.000   0.000   0.000   0.000
   15        0.000  -0.000   0.000   0.000
   16        0.000   0.000   0.000   0.000
   17        0.000   0.000   0.000   0.000
   18        0.000   0.000  -0.000   0.000
   19       -0.000  -0.000  -0.000  -0.000
   20        0.000   0.000   0.000   0.000
   21        0.000   0.000  -0.000   0.000
   22       -0.000   0.000  -0.000  -0.000
   23       -0.000  -0.000  -0.000  -0.000
   24       -0.000   0.000  -0.000   0.000
   25        0.000   0.000  -0.000   0.000
   26       -0.000  -0.000   0.000   0.000
   27       -0.000   0.000   0.000   0.000
   28       -0.000  -0.000   0.000  -0.000
   29        0.000  -0.000   0.000  -0.000
   30        0.000  -0.000   0.000  -0.000
   31       -0.000  -0.000   0.000  -0.000
   32       -0.000   0.000   0.000   0.000
   33       -0.000  -0.000   0.000  -0.000
   34       -0.000   0.000   0.000   0.000
   35        0.000   0.000   0.000   0.000
   36       -0.000   0.000   0.000   0.000
   37        0.000   0.000   0.000   0.000
   38       -0.000   0.000   0.000   0.000
   39        0.000  -0.000   0.000  -0.000
   40        0.000  -0.000   0.000  -0.000
   41        0.000   0.000   0.000   0.000
   42        0.000  -0.000   0.000  -0.000
   43       -0.000  -0.000   0.000  -0.000
   44       -0.000  -0.000   0.000  -0.000
   45        0.000  -0.000   0.000  -0.000
   46        0.000   0.000   0.000   0.000
   47       -0.000  -0.000   0.000  -0.000
   48       -0.000  -0.000   0.000  -0.000
   49        0.000   0.000   0.000   0.000
   50        0.000   0.000   0.000   0.000
   51        0.000   0.000   0.000   0.000
   52        0.000   0.000   0.000   0.000
   53       -0.000  -0.000   0.000  -0.000
   54       -0.000  -0.000   0.000  -0.000
   55       -0.000  -0.000   0.000  -0.000
   56       -0.000  -0.000   0.000  -0.000
   57        0.000   0.000   0.000   0.000
   58       -0.000  -0.000   0.000  -0.000
   59       -0.000   0.000   0.000   0.000
   60        0.000  -0.000   0.000  -0.000
   61       -0.000  -0.000   0.000  -0.000
   62       -0.000  -0.000   0.000  -0.000
   63       -0.000   0.000   0.000   0.000
   64       -0.000   0.000   0.000   0.000
   65       -0.000   0.000   0.000   0.000
   66        0.000   0.000   0.000   0.000
   67        0.000   0.000   0.000   0.000
   68       -0.000  -0.000   0.000  -0.000
   69        0.000   0.000   0.000   0.000
   70       -0.000   0.000   0.000   0.000
   71        0.000  -0.000   0.000  -0.000
   72        0.000   0.000   0.000   0.000
   73       -0.000  -0.000   0.000  -0.000
   74        0.000   0.000   0.000   0.000
   75       -0.000  -0.000   0.000  -0.000
   76        0.000   0.000   0.000   0.000
   77       -0.000  -0.000   0.000  -0.000
   78       -0.000  -0.000   0.000  -0.000
   79        0.000   0.000   0.000   0.000
   80        0.000  -0.000   0.000  -0.000
   81       -0.000  -0.000   0.000  -0.000
   82       -0.000  -0.000   0.000  -0.000
   83        0.000  -0.000   0.000  -0.000
   84       -0.000  -0.000   0.000  -0.000
   85       -0.000  -0.000   0.000  -0.000
   86        0.000   0.000   0.000   0.000
   87        0.000  -0.000   0.000   0.000
   88        0.000   0.000   0.000   0.000
   89       -0.000  -0.000   0.000  -0.000
   90        0.000  -0.000   0.000  -0.000
   91       -0.000  -0.000   0.000  -0.000
   92       -0.000  -0.000   0.000  -0.000
   93       -0.000   0.000   0.000  -0.000
--------------------------------------------------
tot         -0.000  -0.000   0.000  -0.000
 

 total amount of memory used by VASP MPI-rank0   321868. kBytes
=======================================================================

   base      :      30000. kBytes
   nonl-proj :     136648. kBytes
   fftplans  :      24917. kBytes
   grid      :      75254. kBytes
   one-center:       2892. kBytes
   wavefun   :      52157. kBytes
 
  
  
 General timing and accounting informations for this job:
 ========================================================
  
                  Total CPU time used (sec):    25659.930
                            User time (sec):    25558.636
                          System time (sec):      101.293
                         Elapsed time (sec):    25833.112
  
                   Maximum memory used (kb):      702384.
                   Average memory used (kb):          N/A
  
                          Minor page faults:       779302
                          Major page faults:         1957
                 Voluntary context switches:         7963
