<?xml version="1.0" encoding="ISO-8859-1"?>
<modeling>
 <generator>
  <i name="program" type="string">vasp </i>
  <i name="version" type="string">6.3.2  </i>
  <i name="subversion" type="string">27Jun22 (build Aug 05 2024 15:42:26) complex                          parallel </i>
  <i name="platform" type="string">LinuxIFC </i>
  <i name="date" type="string">2025 06 04 </i>
  <i name="time" type="string">20:33:56 </i>
 </generator>
 <incar>
  <i type="string" name="PREC">Accurate</i>
  <i type="string" name="ALGO">Fast</i>
  <i type="logical" name="ADDGRID"> T  </i>
  <i type="int" name="ISPIN">     2</i>
  <i type="int" name="NELM">   100</i>
  <i type="int" name="NELMIN">     3</i>
  <i type="int" name="IBRION">     1</i>
  <i name="EDIFF">      0.00000100</i>
  <i name="EDIFFG">     -0.05000000</i>
  <i type="int" name="NSW">   450</i>
  <i type="int" name="ISIF">     2</i>
  <i type="int" name="ISYM">     0</i>
  <i name="ENCUT">    520.00000000</i>
  <i name="POTIM">      0.20000000</i>
  <v name="MAGMOM">      0.60000000      0.60000000      0.60000000      0.60000000      0.60000000      0.60000000      0.60000000      0.60000000      0.60000000      0.60000000      0.60000000      0.60000000      0.60000000      0.60000000      0.60000000      0.60000000      0.60000000      0.60000000      0.60000000      0.60000000
      0.60000000      0.60000000      0.60000000      0.60000000      0.60000000      0.60000000      0.60000000      0.60000000      0.60000000      0.60000000      0.60000000      0.60000000      0.60000000      0.60000000      0.60000000      0.60000000      0.60000000      0.60000000      0.60000000      0.60000000
      0.60000000      0.60000000      0.60000000      0.60000000      0.60000000      0.60000000      0.60000000      0.60000000      0.60000000      0.60000000      0.60000000      0.60000000      0.60000000      0.60000000      0.60000000      0.60000000      0.60000000      0.60000000      0.60000000      0.60000000
      0.60000000      0.60000000      0.60000000      0.60000000      0.60000000      0.60000000      0.60000000      0.60000000      0.60000000      0.60000000      0.60000000      0.60000000      0.60000000      0.60000000      0.60000000      0.60000000      0.60000000      0.60000000      0.60000000      0.60000000
      0.60000000      0.60000000      0.60000000      0.60000000      0.60000000      0.60000000      0.60000000      0.60000000      0.60000000      0.60000000      0.60000000      0.60000000      0.60000000</v>
  <i type="logical" name="LREAL"> F  </i>
  <i type="int" name="ISMEAR">     0</i>
  <i name="SIGMA">      0.05000000</i>
  <i type="int" name="LMAXMIX">     4</i>
  <i type="logical" name="LWAVE"> F  </i>
  <i type="int" name="LORBIT">    11</i>
  <i type="logical" name="LASPH"> T  </i>
  <i type="logical" name="LDAU"> T  </i>
  <i type="int" name="LDAUTYPE">     2</i>
  <v type="int" name="LDAUL">     0     0     2     0</v>
  <v name="LDAUU">      0.00000000      0.00000000      4.38000000      0.00000000</v>
  <v name="LDAUJ">      0.00000000      0.00000000      0.00000000      0.00000000</v>
  <i type="int" name="LDAUPRINT">     1</i>
  <i name="SPRING">     -5.00000000</i>
 </incar>
 <primitive_cell>
  <structure name="primitive_cell" >
   <crystal>
    <varray name="basis" >
     <v>      22.78514290       0.00000000       0.00000000 </v>
     <v>       0.00000000       3.87685037       0.00000000 </v>
     <v>      -9.97305163       0.00000241      15.12824818 </v>
    </varray>
    <i name="volume">   1336.34759474 </i>
    <varray name="rec_basis" >
     <v>       0.04388825       0.00000000       0.02893261 </v>
     <v>       0.00000000       0.25794135      -0.00000004 </v>
     <v>       0.00000000       0.00000000       0.06610151 </v>
    </varray>
   </crystal>
   <varray name="positions" >
    <v>       0.33519706       0.75159832       0.62301805 </v>
    <v>       0.36709755       0.00764276       0.04592853 </v>
    <v>       0.63430296       0.00792378       0.95457887 </v>
    <v>       0.86548396       0.50787242       0.04496990 </v>
    <v>       0.13140453       0.50938702       0.95508275 </v>
    <v>       0.24874161       0.00357582       0.13728259 </v>
    <v>       0.75226316       0.00318156       0.86161965 </v>
    <v>       0.74792620       0.50315831       0.13800971 </v>
    <v>       0.24965426       0.50340975       0.86468412 </v>
    <v>       0.12940177       0.99718637       0.22970714 </v>
    <v>       0.86897915       0.99863155       0.76713987 </v>
    <v>       0.63145681       0.49854926       0.23289476 </v>
    <v>       0.37092423       0.49588623       0.77472067 </v>
    <v>       0.41895160       0.96662799       0.37957315 </v>
    <v>       0.58405750       0.96716835       0.61753394 </v>
    <v>       0.91759573       0.46707248       0.38161805 </v>
    <v>       0.08217774       0.46695691       0.62024265 </v>
    <v>       0.29623593       0.00331096       0.46671196 </v>
    <v>       0.70237930       0.00351981       0.52610110 </v>
    <v>       0.79857846       0.50366122       0.47290779 </v>
    <v>       0.19871670       0.50292793       0.52448216 </v>
    <v>       0.46744702       0.00129112       0.71425678 </v>
    <v>       0.53664930       0.00181526       0.28694739 </v>
    <v>       0.96352901       0.50165278       0.71222337 </v>
    <v>       0.03354410       0.50133958       0.28475666 </v>
    <v>       0.99924556       0.25203872       0.00004278 </v>
    <v>       0.50072342       0.75296838       0.00082229 </v>
    <v>       0.00038246       0.49098684       0.50039189 </v>
    <v>       0.50067289       0.99110649       0.49926448 </v>
    <v>       0.14859951       0.00446882       0.99128550 </v>
    <v>       0.85001589       0.00401260       0.00873860 </v>
    <v>       0.64914364       0.50435522       0.99051652 </v>
    <v>       0.35084927       0.50402497       0.00924145 </v>
    <v>       0.30326227       0.00301732       0.08160476 </v>
    <v>       0.69627366       0.00380045       0.91760141 </v>
    <v>       0.80293546       0.50333218       0.08149189 </v>
    <v>       0.19634248       0.50204979       0.91998424 </v>
    <v>       0.03365974       0.99905121       0.09872010 </v>
    <v>       0.96559508       0.00008287       0.90221785 </v>
    <v>       0.53439754       0.50164830       0.09862637 </v>
    <v>       0.46643800       0.50006372       0.90129641 </v>
    <v>       0.44971163       0.00391678       0.15566655 </v>
    <v>       0.55002066       0.00317395       0.84389549 </v>
    <v>       0.94917190       0.50343132       0.15550578 </v>
    <v>       0.05009672       0.50512305       0.84455814 </v>
    <v>       0.17976407       0.00182516       0.17756659 </v>
    <v>       0.82008620       0.00315529       0.82264932 </v>
    <v>       0.67986156       0.50296975       0.17707679 </v>
    <v>       0.31915118       0.50022563       0.82368494 </v>
    <v>       0.04893248       0.00120336       0.27039079 </v>
    <v>       0.95045371       0.00184393       0.73015947 </v>
    <v>       0.54986205       0.50173426       0.26967048 </v>
    <v>       0.45039628       0.50119002       0.72752072 </v>
    <v>       0.32541534       0.99959243       0.24979988 </v>
    <v>       0.67463996       0.99938238       0.74986330 </v>
    <v>       0.82538396       0.49920478       0.24974466 </v>
    <v>       0.17416780       0.49982654       0.75124605 </v>
    <v>       0.47630969       0.99857439       0.32599788 </v>
    <v>       0.52343329       0.99946822       0.67124890 </v>
    <v>       0.97625786       0.49937364       0.32696135 </v>
    <v>       0.02400020       0.49834597       0.67357637 </v>
    <v>       0.20650488       0.00176811       0.34880640 </v>
    <v>       0.79290472       0.00192848       0.65108030 </v>
    <v>       0.70759775       0.50214994       0.34899912 </v>
    <v>       0.29678029       0.50173023       0.65253455 </v>
    <v>       0.35358421       0.00065732       0.42546180 </v>
    <v>       0.64815714       0.99929490       0.57426386 </v>
    <v>       0.85283423       0.50023087       0.42551969 </v>
    <v>       0.14837346       0.50001503       0.57614407 </v>
    <v>       0.22262621       0.00255877       0.52214312 </v>
    <v>       0.77877845       0.00307603       0.48114250 </v>
    <v>       0.72193438       0.50293739       0.51849495 </v>
    <v>       0.28004245       0.50274406       0.48151630 </v>
    <v>       0.37600973       0.00215709       0.59712403 </v>
    <v>       0.62184562       0.00261839       0.40388880 </v>
    <v>       0.87843950       0.50277443       0.59595646 </v>
    <v>       0.12185548       0.50222928       0.40422815 </v>
    <v>       0.09106567       0.99264546       0.63110069 </v>
    <v>       0.91004325       0.99290314       0.36883319 </v>
    <v>       0.59002099       0.49278942       0.63104070 </v>
    <v>       0.40958864       0.49249628       0.36897027 </v>
    <v>       0.39280290       0.99986399       0.76869931 </v>
    <v>       0.60588603       0.00115926       0.23183610 </v>
    <v>       0.89450516       0.50102829       0.76825179 </v>
    <v>       0.10574597       0.50025557       0.23187982 </v>
    <v>       0.27537006       0.00304055       0.89707438 </v>
    <v>       0.72399487       0.00362798       0.10270442 </v>
    <v>       0.77544270       0.50362983       0.89658537 </v>
    <v>       0.22422507       0.50363290       0.10407936 </v>
    <v>       0.42930699       0.00431607       0.98730096 </v>
    <v>       0.57145201       0.00471050       0.01335586 </v>
    <v>       0.92801315       0.50272005       0.98686249 </v>
    <v>       0.07091891       0.50389415       0.01349951 </v>
   </varray>
  </structure>
  <varray name="primitive_index" >
   <v type="int" >        1 </v>
   <v type="int" >        2 </v>
   <v type="int" >        3 </v>
   <v type="int" >        4 </v>
   <v type="int" >        5 </v>
   <v type="int" >        6 </v>
   <v type="int" >        7 </v>
   <v type="int" >        8 </v>
   <v type="int" >        9 </v>
   <v type="int" >       10 </v>
   <v type="int" >       11 </v>
   <v type="int" >       12 </v>
   <v type="int" >       13 </v>
   <v type="int" >       14 </v>
   <v type="int" >       15 </v>
   <v type="int" >       16 </v>
   <v type="int" >       17 </v>
   <v type="int" >       18 </v>
   <v type="int" >       19 </v>
   <v type="int" >       20 </v>
   <v type="int" >       21 </v>
   <v type="int" >       22 </v>
   <v type="int" >       23 </v>
   <v type="int" >       24 </v>
   <v type="int" >       25 </v>
   <v type="int" >       26 </v>
   <v type="int" >       27 </v>
   <v type="int" >       28 </v>
   <v type="int" >       29 </v>
   <v type="int" >       30 </v>
   <v type="int" >       31 </v>
   <v type="int" >       32 </v>
   <v type="int" >       33 </v>
   <v type="int" >       34 </v>
   <v type="int" >       35 </v>
   <v type="int" >       36 </v>
   <v type="int" >       37 </v>
   <v type="int" >       38 </v>
   <v type="int" >       39 </v>
   <v type="int" >       40 </v>
   <v type="int" >       41 </v>
   <v type="int" >       42 </v>
   <v type="int" >       43 </v>
   <v type="int" >       44 </v>
   <v type="int" >       45 </v>
   <v type="int" >       46 </v>
   <v type="int" >       47 </v>
   <v type="int" >       48 </v>
   <v type="int" >       49 </v>
   <v type="int" >       50 </v>
   <v type="int" >       51 </v>
   <v type="int" >       52 </v>
   <v type="int" >       53 </v>
   <v type="int" >       54 </v>
   <v type="int" >       55 </v>
   <v type="int" >       56 </v>
   <v type="int" >       57 </v>
   <v type="int" >       58 </v>
   <v type="int" >       59 </v>
   <v type="int" >       60 </v>
   <v type="int" >       61 </v>
   <v type="int" >       62 </v>
   <v type="int" >       63 </v>
   <v type="int" >       64 </v>
   <v type="int" >       65 </v>
   <v type="int" >       66 </v>
   <v type="int" >       67 </v>
   <v type="int" >       68 </v>
   <v type="int" >       69 </v>
   <v type="int" >       70 </v>
   <v type="int" >       71 </v>
   <v type="int" >       72 </v>
   <v type="int" >       73 </v>
   <v type="int" >       74 </v>
   <v type="int" >       75 </v>
   <v type="int" >       76 </v>
   <v type="int" >       77 </v>
   <v type="int" >       78 </v>
   <v type="int" >       79 </v>
   <v type="int" >       80 </v>
   <v type="int" >       81 </v>
   <v type="int" >       82 </v>
   <v type="int" >       83 </v>
   <v type="int" >       84 </v>
   <v type="int" >       85 </v>
   <v type="int" >       86 </v>
   <v type="int" >       87 </v>
   <v type="int" >       88 </v>
   <v type="int" >       89 </v>
   <v type="int" >       90 </v>
   <v type="int" >       91 </v>
   <v type="int" >       92 </v>
   <v type="int" >       93 </v>
  </varray>
 </primitive_cell>
 <kpoints>
  <generation param="Gamma">
   <v type="int" name="divisions">       1        6        1 </v>
   <v name="usershift">      0.00000000       0.00000000       0.00000000 </v>
   <v name="genvec1">      1.00000000       0.00000000      -0.00000000 </v>
   <v name="genvec2">      0.00000000       0.16666667       0.00000000 </v>
   <v name="genvec3">      0.00000000       0.00000000       1.00000000 </v>
   <v name="shift">      0.00000000       0.00000000       0.00000000 </v>
  </generation>
  <varray name="kpointlist" >
   <v>       0.00000000       0.00000000       0.00000000 </v>
   <v>       0.00000000       0.16666667       0.00000000 </v>
   <v>       0.00000000       0.33333333       0.00000000 </v>
   <v>       0.00000000       0.50000000       0.00000000 </v>
  </varray>
  <varray name="weights" >
   <v>       0.16666667 </v>
   <v>       0.33333333 </v>
   <v>       0.33333333 </v>
   <v>       0.16666667 </v>
  </varray>
 </kpoints>
 <parameters>
  <separator name="general" >
   <i type="string" name="SYSTEM">unknown system</i>
   <i type="logical" name="LCOMPAT"> F  </i>
  </separator>
  <separator name="electronic" >
   <i type="string" name="PREC">accura</i>
   <i name="ENMAX">    520.00000000</i>
   <i name="ENAUG">    605.39200000</i>
   <i name="EDIFF">      0.00000100</i>
   <i type="int" name="IALGO">    68</i>
   <i type="int" name="IWAVPR">    11</i>
   <i type="int" name="NBANDS">   462</i>
   <i type="int" name="NBANDSLOW">    -1</i>
   <i type="int" name="NBANDSHIGH">    -1</i>
   <i name="NELECT">    687.00000000</i>
   <i type="int" name="TURBO">     0</i>
   <i type="int" name="IRESTART">     0</i>
   <i type="int" name="NREBOOT">     0</i>
   <i type="int" name="NMIN">     0</i>
   <i name="EREF">      0.00000000</i>
   <separator name="electronic smearing" >
    <i type="int" name="ISMEAR">     0</i>
    <i name="SIGMA">      0.05000000</i>
    <i name="KSPACING">      0.50000000</i>
    <i type="logical" name="KGAMMA"> T  </i>
    <i type="logical" name="KBLOWUP"> T  </i>
   </separator>
   <separator name="electronic projectors" >
    <i type="logical" name="LREAL"> F  </i>
    <v name="ROPT">      0.00000000      0.00000000      0.00000000      0.00000000</v>
    <i type="int" name="LMAXPAW">  -100</i>
    <i type="int" name="LMAXMIX">     4</i>
    <i type="logical" name="NLSPLINE"> F  </i>
   </separator>
   <separator name="electronic startup" >
    <i type="int" name="ISTART">     0</i>
    <i type="int" name="ICHARG">     2</i>
    <i type="int" name="INIWAV">     1</i>
   </separator>
   <separator name="electronic spin" >
    <i type="int" name="ISPIN">     2</i>
    <i type="logical" name="LNONCOLLINEAR"> F  </i>
    <v name="MAGMOM">      0.60000000      0.60000000      0.60000000      0.60000000      0.60000000      0.60000000      0.60000000      0.60000000      0.60000000      0.60000000      0.60000000      0.60000000      0.60000000      0.60000000      0.60000000      0.60000000      0.60000000      0.60000000      0.60000000      0.60000000
      0.60000000      0.60000000      0.60000000      0.60000000      0.60000000      0.60000000      0.60000000      0.60000000      0.60000000      0.60000000      0.60000000      0.60000000      0.60000000      0.60000000      0.60000000      0.60000000      0.60000000      0.60000000      0.60000000      0.60000000
      0.60000000      0.60000000      0.60000000      0.60000000      0.60000000      0.60000000      0.60000000      0.60000000      0.60000000      0.60000000      0.60000000      0.60000000      0.60000000      0.60000000      0.60000000      0.60000000      0.60000000      0.60000000      0.60000000      0.60000000
      0.60000000      0.60000000      0.60000000      0.60000000      0.60000000      0.60000000      0.60000000      0.60000000      0.60000000      0.60000000      0.60000000      0.60000000      0.60000000      0.60000000      0.60000000      0.60000000      0.60000000      0.60000000      0.60000000      0.60000000
      0.60000000      0.60000000      0.60000000      0.60000000      0.60000000      0.60000000      0.60000000      0.60000000      0.60000000      0.60000000      0.60000000      0.60000000      0.60000000</v>
    <i name="NUPDOWN">     -1.00000000</i>
    <i type="logical" name="LSORBIT"> F  </i>
    <v name="SAXIS">      0.00000000      0.00000000      1.00000000</v>
    <i type="logical" name="LSPIRAL"> F  </i>
    <v name="QSPIRAL">      0.00000000      0.00000000      0.00000000</v>
    <i type="logical" name="LZEROZ"> F  </i>
   </separator>
   <separator name="electronic exchange-correlation" >
    <i type="logical" name="LASPH"> T  </i>
    <i type="logical" name="LMETAGGA"> F  </i>
   </separator>
   <separator name="electronic convergence" >
    <i type="int" name="NELM">   100</i>
    <i type="int" name="NELMDL">    -5</i>
    <i type="int" name="NELMIN">     3</i>
    <i name="ENINI">    520.00000000</i>
    <separator name="electronic convergence detail" >
     <i type="logical" name="LDIAG"> T  </i>
     <i type="logical" name="LSUBROT"> F  </i>
     <i name="WEIMIN">      0.00100000</i>
     <i name="EBREAK">      0.00000000</i>
     <i name="DEPER">      0.30000000</i>
     <i type="int" name="NRMM">     4</i>
     <i name="TIME">      0.40000000</i>
    </separator>
   </separator>
   <separator name="electronic mixer" >
    <i name="AMIX">      0.40000000</i>
    <i name="BMIX">      1.00000000</i>
    <i name="AMIN">      0.10000000</i>
    <i name="AMIX_MAG">      1.60000000</i>
    <i name="BMIX_MAG">      1.00000000</i>
    <separator name="electronic mixer details" >
     <i type="int" name="IMIX">     4</i>
     <i type="logical" name="MIXFIRST"> F  </i>
     <i type="int" name="MAXMIX">   -45</i>
     <i name="WC">    100.00000000</i>
     <i type="int" name="INIMIX">     1</i>
     <i type="int" name="MIXPRE">     1</i>
     <i type="int" name="MREMOVE">     5</i>
    </separator>
   </separator>
   <separator name="electronic dipolcorrection" >
    <i type="logical" name="LDIPOL"> F  </i>
    <i type="logical" name="LMONO"> F  </i>
    <i type="int" name="IDIPOL">     0</i>
    <i name="EPSILON">      1.00000000</i>
    <v name="DIPOL">   -100.00000000   -100.00000000   -100.00000000</v>
    <i name="EFIELD">      0.00000000</i>
   </separator>
  </separator>
  <separator name="grids" >
   <i type="int" name="NGX">   180</i>
   <i type="int" name="NGY">    30</i>
   <i type="int" name="NGZ">   140</i>
   <i type="int" name="NGXF">   360</i>
   <i type="int" name="NGYF">    60</i>
   <i type="int" name="NGZF">   280</i>
   <i type="logical" name="ADDGRID"> T  </i>
  </separator>
  <separator name="ionic" >
   <i type="int" name="NSW">   450</i>
   <i type="int" name="IBRION">     1</i>
   <i type="int" name="MDALGO">     0</i>
   <i type="int" name="ISIF">     2</i>
   <i name="PSTRESS">      0.00000000</i>
   <i name="EDIFFG">     -0.05000000</i>
   <i type="int" name="NFREE">     0</i>
   <i name="POTIM">      0.20000000</i>
   <i name="SMASS">     -3.00000000</i>
   <i name="SCALEE">      1.00000000</i>
  </separator>
  <separator name="ionic md" >
   <i name="TEBEG">      0.00010000</i>
   <i name="TEEND">      0.00010000</i>
   <i type="int" name="NBLOCK">     1</i>
   <i type="int" name="KBLOCK">   450</i>
   <i type="int" name="NPACO">   256</i>
   <i name="APACO">     10.00000000</i>
  </separator>
  <separator name="symmetry" >
   <i type="int" name="ISYM">     0</i>
   <i name="SYMPREC">      0.00001000</i>
  </separator>
  <separator name="dos" >
   <i type="int" name="LORBIT">    11</i>
   <v name="RWIGS">     -1.00000000     -1.00000000     -1.00000000     -1.00000000</v>
   <i type="int" name="NEDOS">   301</i>
   <i name="EMIN">     10.00000000</i>
   <i name="EMAX">    -10.00000000</i>
   <i name="EFERMI">      0.00000000</i>
  </separator>
  <separator name="writing" >
   <i type="int" name="NWRITE">     2</i>
   <i type="logical" name="LWAVE"> F  </i>
   <i type="logical" name="LDOWNSAMPLE"> F  </i>
   <i type="logical" name="LCHARG"> T  </i>
   <i type="logical" name="LPARD"> F  </i>
   <i type="logical" name="LVTOT"> F  </i>
   <i type="logical" name="LVHAR"> F  </i>
   <i type="logical" name="LELF"> F  </i>
   <i type="logical" name="LOPTICS"> F  </i>
   <v name="STM">      0.00000000      0.00000000      0.00000000      0.00000000      0.00000000      0.00000000      0.00000000</v>
  </separator>
  <separator name="performance" >
   <i type="int" name="NPAR">    42</i>
   <i type="int" name="NSIM">     4</i>
   <i type="int" name="NBLK">    -1</i>
   <i type="logical" name="LPLANE"> T  </i>
   <i type="logical" name="LSCALAPACK"> T  </i>
   <i type="logical" name="LSCAAWARE"> F  </i>
   <i type="logical" name="LSCALU"> F  </i>
   <i type="logical" name="LASYNC"> F  </i>
   <i type="logical" name="LORBITALREAL"> F  </i>
  </separator>
  <separator name="miscellaneous" >
   <i type="int" name="IDIOT">     3</i>
   <i type="int" name="PHON_NSTRUCT">    -1</i>
   <i type="logical" name="LMUSIC"> F  </i>
   <v name="POMASS">      7.01000000     92.00000000     95.94000000     16.00000000</v>
   <v name="DARWINR">      0.00000000      0.00000000      0.00000000      0.00000000</v>
   <v name="DARWINV">      1.00000000      1.00000000      1.00000000      1.00000000</v>
   <i type="logical" name="LCORR"> T  </i>
  </separator>
  <i type="logical" name="GGA_COMPAT"> T  </i>
  <i type="logical" name="LBERRY"> F  </i>
  <i type="int" name="ICORELEVEL">     0</i>
  <i type="logical" name="LDAU"> T  </i>
  <v type="int" name="LDAUTYPE">     2</v>
  <v type="int" name="LDAUL">     0</v>
  <v name="LDAUU">      0.00000000</v>
  <v name="LDAUJ">      0.00000000</v>
  <i type="int" name="LDAUPRINT">     1</i>
  <i type="int" name="I_CONSTRAINED_M">     0</i>
  <separator name="electronic exchange-correlation" >
   <i type="string" name="GGA">--</i>
   <i type="int" name="VOSKOWN">     0</i>
   <i type="logical" name="LHFCALC"> F  </i>
   <i type="string" name="PRECFOCK"></i>
   <i type="logical" name="LSYMGRAD"> F  </i>
   <i type="logical" name="LHFONE"> F  </i>
   <i type="logical" name="LRHFCALC"> F  </i>
   <i type="logical" name="LTHOMAS"> F  </i>
   <i type="logical" name="LMODELHF"> F  </i>
   <i type="logical" name="LFOCKACE"> F  </i>
   <i name="ENCUT4O">     -1.00000000</i>
   <i type="int" name="EXXOEP">     0</i>
   <i type="int" name="FOURORBIT">     0</i>
   <i name="AEXX">      0.00000000</i>
   <i name="HFALPHA">      0.00000000</i>
   <i name="MCALPHA">      0.00000000</i>
   <i name="ALDAX">      1.00000000</i>
   <i name="AGGAX">      1.00000000</i>
   <i name="ALDAC">      1.00000000</i>
   <i name="AGGAC">      1.00000000</i>
   <i type="int" name="NKREDX">     1</i>
   <i type="int" name="NKREDY">     1</i>
   <i type="int" name="NKREDZ">     1</i>
   <i type="logical" name="SHIFTRED"> F  </i>
   <i type="logical" name="ODDONLY"> F  </i>
   <i type="logical" name="EVENONLY"> F  </i>
   <i type="int" name="LMAXFOCK">     0</i>
   <i type="int" name="NMAXFOCKAE">     0</i>
   <i type="logical" name="LFOCKAEDFT"> F  </i>
   <i name="HFSCREEN">      0.00000000</i>
   <i name="HFSCREENC">      0.00000000</i>
   <i type="int" name="NBANDSGWLOW">     0</i>
  </separator>
  <separator name="vdW DFT" >
   <i type="logical" name="LUSE_VDW"> F  </i>
   <i name="Zab_VDW">     -0.84910000</i>
   <i name="PARAM1">      0.12340000</i>
   <i name="PARAM2">      1.00000000</i>
   <i name="PARAM3">      0.00000000</i>
  </separator>
  <separator name="model GW" >
   <i type="int" name="MODEL_GW">     0</i>
   <i name="MODEL_EPS0">      8.62159739</i>
   <i name="MODEL_ALPHA">      1.00000000</i>
  </separator>
  <separator name="linear response parameters" >
   <i type="logical" name="LEPSILON"> F  </i>
   <i type="logical" name="LRPA"> F  </i>
   <i type="logical" name="LNABLA"> F  </i>
   <i type="logical" name="LVEL"> F  </i>
   <i name="CSHIFT">      0.10000000</i>
   <i name="OMEGAMAX">     -1.00000000</i>
   <i name="DEG_THRESHOLD">      0.00200000</i>
   <i name="RTIME">     -0.10000000</i>
   <i name="WPLASMAI">      0.00000000</i>
   <v name="DFIELD">      0.00000000      0.00000000      0.00000000</v>
   <v name="WPLASMA">      0.00000000      0.00000000      0.00000000      0.00000000      0.00000000      0.00000000      0.00000000      0.00000000      0.00000000</v>
  </separator>
  <separator name="orbital magnetization" >
   <i type="logical" name="NUCIND"> F  </i>
   <v name="MAGPOS">      0.00000000      0.00000000      0.00000000</v>
   <i type="logical" name="LNICSALL"> T  </i>
   <i type="logical" name="ORBITALMAG"> F  </i>
   <i type="logical" name="LMAGBLOCH"> F  </i>
   <i type="logical" name="LCHIMAG"> F  </i>
   <i type="logical" name="LGAUGE"> T  </i>
   <i type="int" name="MAGATOM">     0</i>
   <v name="MAGDIPOL">      0.00000000      0.00000000      0.00000000</v>
   <v name="AVECCONST">      0.00000000      0.00000000      0.00000000</v>
  </separator>
  <separator name="response functions" >
   <i type="logical" name="LFINITE_TEMPERATURE"> F  </i>
   <i type="logical" name="LADDER"> F  </i>
   <i type="logical" name="LRPAFORCE"> F  </i>
   <i type="logical" name="LFXC"> F  </i>
   <i type="logical" name="LHARTREE"> T  </i>
   <i type="int" name="IBSE">     0</i>
   <v type="int" name="KPOINT">    -1     0     0     0</v>
   <i type="logical" name="LTCTC"> F  </i>
   <i type="logical" name="LTCTE"> F  </i>
   <i type="logical" name="LTETE"> F  </i>
   <i type="logical" name="LTRIPLET"> F  </i>
   <i type="logical" name="LFXCEPS"> F  </i>
   <i type="logical" name="LFXHEG"> F  </i>
   <i type="int" name="NATURALO">     2</i>
   <i type="logical" name="LHOLEGF"> F  </i>
   <i type="logical" name="L2ORDER"> F  </i>
   <i type="logical" name="LDMP1"> F  </i>
   <i type="logical" name="LMP2LT"> F  </i>
   <i type="logical" name="LSMP2LT"> F  </i>
   <i type="logical" name="LGWLF"> F  </i>
   <i name="ENCUTGW">     -2.00000000</i>
   <i name="ENCUTGWSOFT">     -2.00000000</i>
   <i name="ENCUTLF">     -1.00000000</i>
   <i type="logical" name="LESF_SPLINES"> F  </i>
   <i type="int" name="LMAXMP2">    -1</i>
   <i name="SCISSOR">      0.00000000</i>
   <i type="int" name="NOMEGA">     0</i>
   <i type="int" name="NOMEGAR">     0</i>
   <i type="int" name="NBANDSGW">    -1</i>
   <i type="int" name="NBANDSO">    -1</i>
   <i type="int" name="NBANDSV">    -1</i>
   <i type="int" name="NELMGW">     1</i>
   <i type="int" name="NELMHF">     1</i>
   <i type="int" name="DIM">     3</i>
   <i type="int" name="IESPILON">     4</i>
   <i type="int" name="ANTIRES">     0</i>
   <i name="OMEGAMAX">    -30.00000000</i>
   <i name="OMEGAMIN">    -30.00000000</i>
   <i name="OMEGATL">   -200.00000000</i>
   <i type="int" name="OMEGAGRID">     0</i>
   <i name="CSHIFT">     -0.10000000</i>
   <i type="logical" name="LSELFENERGY"> F  </i>
   <i type="logical" name="LSPECTRAL"> F  </i>
   <i type="logical" name="LSPECTRALGW"> F  </i>
   <i type="logical" name="LSINGLES"> F  </i>
   <i type="logical" name="LFERMIGW"> F  </i>
   <i type="logical" name="ODDONLYGW"> F  </i>
   <i type="logical" name="EVENONLYGW"> F  </i>
   <i type="int" name="NKREDLFX">     1</i>
   <i type="int" name="NKREDLFY">     1</i>
   <i type="int" name="NKREDLFZ">     1</i>
   <i type="int" name="MAXMEM">  2800</i>
   <i type="int" name="TELESCOPE">     0</i>
   <i type="int" name="NTAUPAR">    -1</i>
   <i type="int" name="NOMEGAPAR">    -1</i>
   <i name="DAMP_NEWTON">      0.80000001</i>
   <i name="LAMBDA">      1.00000000</i>
  </separator>
  <separator name="External order field" >
   <i name="OFIELD_KAPPA">      0.00000000</i>
   <v name="OFIELD_K">      0.00000000      0.00000000      0.00000000</v>
   <i name="OFIELD_Q6_NEAR">      0.00000000</i>
   <i name="OFIELD_Q6_FAR">      0.00000000</i>
   <i name="OFIELD_A">      0.00000000</i>
  </separator>
  <separator name="optional k-points parameters" >
   <i type="int" name="KPOINTS_OPT_MODE">     1</i>
   <i type="logical" name="LKPOINTS_OPT"> F  </i>
  </separator>
 </parameters>
 <atominfo>
  <atoms>      93 </atoms>
  <types>       4 </types>
  <array name="atoms" >
   <dimension dim="1">ion</dimension>
   <field type="string">element</field>
   <field type="int">atomtype</field>
   <set>
    <rc><c>Li</c><c>   1</c></rc>
    <rc><c>Nb</c><c>   2</c></rc>
    <rc><c>Nb</c><c>   2</c></rc>
    <rc><c>Nb</c><c>   2</c></rc>
    <rc><c>Nb</c><c>   2</c></rc>
    <rc><c>Nb</c><c>   2</c></rc>
    <rc><c>Nb</c><c>   2</c></rc>
    <rc><c>Nb</c><c>   2</c></rc>
    <rc><c>Nb</c><c>   2</c></rc>
    <rc><c>Nb</c><c>   2</c></rc>
    <rc><c>Nb</c><c>   2</c></rc>
    <rc><c>Nb</c><c>   2</c></rc>
    <rc><c>Nb</c><c>   2</c></rc>
    <rc><c>Nb</c><c>   2</c></rc>
    <rc><c>Nb</c><c>   2</c></rc>
    <rc><c>Nb</c><c>   2</c></rc>
    <rc><c>Nb</c><c>   2</c></rc>
    <rc><c>Nb</c><c>   2</c></rc>
    <rc><c>Nb</c><c>   2</c></rc>
    <rc><c>Nb</c><c>   2</c></rc>
    <rc><c>Nb</c><c>   2</c></rc>
    <rc><c>Nb</c><c>   2</c></rc>
    <rc><c>Nb</c><c>   2</c></rc>
    <rc><c>Nb</c><c>   2</c></rc>
    <rc><c>Nb</c><c>   2</c></rc>
    <rc><c>Mo</c><c>   3</c></rc>
    <rc><c>Mo</c><c>   3</c></rc>
    <rc><c>O </c><c>   4</c></rc>
    <rc><c>O </c><c>   4</c></rc>
    <rc><c>O </c><c>   4</c></rc>
    <rc><c>O </c><c>   4</c></rc>
    <rc><c>O </c><c>   4</c></rc>
    <rc><c>O </c><c>   4</c></rc>
    <rc><c>O </c><c>   4</c></rc>
    <rc><c>O </c><c>   4</c></rc>
    <rc><c>O </c><c>   4</c></rc>
    <rc><c>O </c><c>   4</c></rc>
    <rc><c>O </c><c>   4</c></rc>
    <rc><c>O </c><c>   4</c></rc>
    <rc><c>O </c><c>   4</c></rc>
    <rc><c>O </c><c>   4</c></rc>
    <rc><c>O </c><c>   4</c></rc>
    <rc><c>O </c><c>   4</c></rc>
    <rc><c>O </c><c>   4</c></rc>
    <rc><c>O </c><c>   4</c></rc>
    <rc><c>O </c><c>   4</c></rc>
    <rc><c>O </c><c>   4</c></rc>
    <rc><c>O </c><c>   4</c></rc>
    <rc><c>O </c><c>   4</c></rc>
    <rc><c>O </c><c>   4</c></rc>
    <rc><c>O </c><c>   4</c></rc>
    <rc><c>O </c><c>   4</c></rc>
    <rc><c>O </c><c>   4</c></rc>
    <rc><c>O </c><c>   4</c></rc>
    <rc><c>O </c><c>   4</c></rc>
    <rc><c>O </c><c>   4</c></rc>
    <rc><c>O </c><c>   4</c></rc>
    <rc><c>O </c><c>   4</c></rc>
    <rc><c>O </c><c>   4</c></rc>
    <rc><c>O </c><c>   4</c></rc>
    <rc><c>O </c><c>   4</c></rc>
    <rc><c>O </c><c>   4</c></rc>
    <rc><c>O </c><c>   4</c></rc>
    <rc><c>O </c><c>   4</c></rc>
    <rc><c>O </c><c>   4</c></rc>
    <rc><c>O </c><c>   4</c></rc>
    <rc><c>O </c><c>   4</c></rc>
    <rc><c>O </c><c>   4</c></rc>
    <rc><c>O </c><c>   4</c></rc>
    <rc><c>O </c><c>   4</c></rc>
    <rc><c>O </c><c>   4</c></rc>
    <rc><c>O </c><c>   4</c></rc>
    <rc><c>O </c><c>   4</c></rc>
    <rc><c>O </c><c>   4</c></rc>
    <rc><c>O </c><c>   4</c></rc>
    <rc><c>O </c><c>   4</c></rc>
    <rc><c>O </c><c>   4</c></rc>
    <rc><c>O </c><c>   4</c></rc>
    <rc><c>O </c><c>   4</c></rc>
    <rc><c>O </c><c>   4</c></rc>
    <rc><c>O </c><c>   4</c></rc>
    <rc><c>O </c><c>   4</c></rc>
    <rc><c>O </c><c>   4</c></rc>
    <rc><c>O </c><c>   4</c></rc>
    <rc><c>O </c><c>   4</c></rc>
    <rc><c>O </c><c>   4</c></rc>
    <rc><c>O </c><c>   4</c></rc>
    <rc><c>O </c><c>   4</c></rc>
    <rc><c>O </c><c>   4</c></rc>
    <rc><c>O </c><c>   4</c></rc>
    <rc><c>O </c><c>   4</c></rc>
    <rc><c>O </c><c>   4</c></rc>
    <rc><c>O </c><c>   4</c></rc>
   </set>
  </array>
  <array name="atomtypes" >
   <dimension dim="1">type</dimension>
   <field type="int">atomspertype</field>
   <field type="string">element</field>
   <field>mass</field>
   <field>valence</field>
   <field type="string">pseudopotential</field>
   <set>
    <rc><c>   1</c><c>Li</c><c>      7.01000000</c><c>      3.00000000</c><c> PAW_PBE Li_sv 23Jan2001                </c></rc>
    <rc><c>  24</c><c>Nb</c><c>     92.00000000</c><c>     11.00000000</c><c> PAW_PBE Nb_pv 08Apr2002                </c></rc>
    <rc><c>   2</c><c>Mo</c><c>     95.94000000</c><c>     12.00000000</c><c> PAW_PBE Mo_pv 08Apr2002                </c></rc>
    <rc><c>  66</c><c>O </c><c>     16.00000000</c><c>      6.00000000</c><c> PAW_PBE O 08Apr2002                    </c></rc>
   </set>
  </array>
 </atominfo>
 <structure name="initialpos" >
  <crystal>
   <varray name="basis" >
    <v>      22.78514290       0.00000000       0.00000000 </v>
    <v>       0.00000000       3.87685037       0.00000000 </v>
    <v>      -9.97305163       0.00000241      15.12824818 </v>
   </varray>
   <i name="volume">   1336.34759474 </i>
   <varray name="rec_basis" >
    <v>       0.04388825       0.00000000       0.02893261 </v>
    <v>       0.00000000       0.25794135      -0.00000004 </v>
    <v>       0.00000000       0.00000000       0.06610151 </v>
   </varray>
  </crystal>
  <varray name="positions" >
   <v>       0.33519706       0.75159832       0.62301805 </v>
   <v>       0.36709755       0.00764276       0.04592853 </v>
   <v>       0.63430296       0.00792378       0.95457887 </v>
   <v>       0.86548396       0.50787242       0.04496990 </v>
   <v>       0.13140453       0.50938702       0.95508275 </v>
   <v>       0.24874161       0.00357582       0.13728259 </v>
   <v>       0.75226316       0.00318156       0.86161965 </v>
   <v>       0.74792620       0.50315831       0.13800971 </v>
   <v>       0.24965426       0.50340975       0.86468412 </v>
   <v>       0.12940177       0.99718637       0.22970714 </v>
   <v>       0.86897915       0.99863155       0.76713987 </v>
   <v>       0.63145681       0.49854926       0.23289476 </v>
   <v>       0.37092423       0.49588623       0.77472067 </v>
   <v>       0.41895160       0.96662799       0.37957315 </v>
   <v>       0.58405750       0.96716835       0.61753394 </v>
   <v>       0.91759573       0.46707248       0.38161805 </v>
   <v>       0.08217774       0.46695691       0.62024265 </v>
   <v>       0.29623593       0.00331096       0.46671196 </v>
   <v>       0.70237930       0.00351981       0.52610110 </v>
   <v>       0.79857846       0.50366122       0.47290779 </v>
   <v>       0.19871670       0.50292793       0.52448216 </v>
   <v>       0.46744702       0.00129112       0.71425678 </v>
   <v>       0.53664930       0.00181526       0.28694739 </v>
   <v>       0.96352901       0.50165278       0.71222337 </v>
   <v>       0.03354410       0.50133958       0.28475666 </v>
   <v>       0.99924556       0.25203872       0.00004278 </v>
   <v>       0.50072342       0.75296838       0.00082229 </v>
   <v>       0.00038246       0.49098684       0.50039189 </v>
   <v>       0.50067289       0.99110649       0.49926448 </v>
   <v>       0.14859951       0.00446882       0.99128550 </v>
   <v>       0.85001589       0.00401260       0.00873860 </v>
   <v>       0.64914364       0.50435522       0.99051652 </v>
   <v>       0.35084927       0.50402497       0.00924145 </v>
   <v>       0.30326227       0.00301732       0.08160476 </v>
   <v>       0.69627366       0.00380045       0.91760141 </v>
   <v>       0.80293546       0.50333218       0.08149189 </v>
   <v>       0.19634248       0.50204979       0.91998424 </v>
   <v>       0.03365974       0.99905121       0.09872010 </v>
   <v>       0.96559508       0.00008287       0.90221785 </v>
   <v>       0.53439754       0.50164830       0.09862637 </v>
   <v>       0.46643800       0.50006372       0.90129641 </v>
   <v>       0.44971163       0.00391678       0.15566655 </v>
   <v>       0.55002066       0.00317395       0.84389549 </v>
   <v>       0.94917190       0.50343132       0.15550578 </v>
   <v>       0.05009672       0.50512305       0.84455814 </v>
   <v>       0.17976407       0.00182516       0.17756659 </v>
   <v>       0.82008620       0.00315529       0.82264932 </v>
   <v>       0.67986156       0.50296975       0.17707679 </v>
   <v>       0.31915118       0.50022563       0.82368494 </v>
   <v>       0.04893248       0.00120336       0.27039079 </v>
   <v>       0.95045371       0.00184393       0.73015947 </v>
   <v>       0.54986205       0.50173426       0.26967048 </v>
   <v>       0.45039628       0.50119002       0.72752072 </v>
   <v>       0.32541534       0.99959243       0.24979988 </v>
   <v>       0.67463996       0.99938238       0.74986330 </v>
   <v>       0.82538396       0.49920478       0.24974466 </v>
   <v>       0.17416780       0.49982654       0.75124605 </v>
   <v>       0.47630969       0.99857439       0.32599788 </v>
   <v>       0.52343329       0.99946822       0.67124890 </v>
   <v>       0.97625786       0.49937364       0.32696135 </v>
   <v>       0.02400020       0.49834597       0.67357637 </v>
   <v>       0.20650488       0.00176811       0.34880640 </v>
   <v>       0.79290472       0.00192848       0.65108030 </v>
   <v>       0.70759775       0.50214994       0.34899912 </v>
   <v>       0.29678029       0.50173023       0.65253455 </v>
   <v>       0.35358421       0.00065732       0.42546180 </v>
   <v>       0.64815714       0.99929490       0.57426386 </v>
   <v>       0.85283423       0.50023087       0.42551969 </v>
   <v>       0.14837346       0.50001503       0.57614407 </v>
   <v>       0.22262621       0.00255877       0.52214312 </v>
   <v>       0.77877845       0.00307603       0.48114250 </v>
   <v>       0.72193438       0.50293739       0.51849495 </v>
   <v>       0.28004245       0.50274406       0.48151630 </v>
   <v>       0.37600973       0.00215709       0.59712403 </v>
   <v>       0.62184562       0.00261839       0.40388880 </v>
   <v>       0.87843950       0.50277443       0.59595646 </v>
   <v>       0.12185548       0.50222928       0.40422815 </v>
   <v>       0.09106567       0.99264546       0.63110069 </v>
   <v>       0.91004325       0.99290314       0.36883319 </v>
   <v>       0.59002099       0.49278942       0.63104070 </v>
   <v>       0.40958864       0.49249628       0.36897027 </v>
   <v>       0.39280290       0.99986399       0.76869931 </v>
   <v>       0.60588603       0.00115926       0.23183610 </v>
   <v>       0.89450516       0.50102829       0.76825179 </v>
   <v>       0.10574597       0.50025557       0.23187982 </v>
   <v>       0.27537006       0.00304055       0.89707438 </v>
   <v>       0.72399487       0.00362798       0.10270442 </v>
   <v>       0.77544270       0.50362983       0.89658537 </v>
   <v>       0.22422507       0.50363290       0.10407936 </v>
   <v>       0.42930699       0.00431607       0.98730096 </v>
   <v>       0.57145201       0.00471050       0.01335586 </v>
   <v>       0.92801315       0.50272005       0.98686249 </v>
   <v>       0.07091891       0.50389415       0.01349951 </v>
  </varray>
 </structure>
 <calculation>
  <scstep>
   <time name="dav">   44.00   44.29</time>
   <time name="total">   45.02   45.32</time>
   <energy>
    <i name="alphaZ">   3514.54571391 </i>
    <i name="ewald"> -36983.19415709 </i>
    <i name="hartreedc"> -17991.26938612 </i>
    <i name="XCdc">   2527.03817589 </i>
    <i name="pawpsdc">  35089.64318688 </i>
    <i name="pawaedc"> -34806.48135010 </i>
    <i name="eentropy">     -0.01622131 </i>
    <i name="bandstr">   2054.24419772 </i>
    <i name="atom">  56348.38862387 </i>
    <i name="e_fr_energy">   9752.89878365 </i>
    <i name="e_wo_entrp">   9752.91500496 </i>
    <i name="e_0_energy">   9752.90689431 </i>
   </energy>
  </scstep>
  <scstep>
   <time name="dav">   43.70   44.26</time>
   <time name="total">   43.71   44.26</time>
   <energy>
    <i name="e_fr_energy">    830.96477305 </i>
    <i name="e_wo_entrp">    831.00899084 </i>
    <i name="e_0_energy">    830.98688194 </i>
   </energy>
  </scstep>
  <scstep>
   <time name="dav">   65.53   65.97</time>
   <time name="total">   65.54   65.97</time>
   <energy>
    <i name="e_fr_energy">   -921.23609232 </i>
    <i name="e_wo_entrp">   -921.22462406 </i>
    <i name="e_0_energy">   -921.23035819 </i>
   </energy>
  </scstep>
  <scstep>
   <time name="dav">   63.50   64.22</time>
   <time name="total">   63.51   64.22</time>
   <energy>
    <i name="e_fr_energy">  -1016.90407450 </i>
    <i name="e_wo_entrp">  -1016.89144678 </i>
    <i name="e_0_energy">  -1016.89776064 </i>
   </energy>
  </scstep>
  <scstep>
   <time name="dav">   64.90   65.33</time>
   <time name="total">   66.74   67.18</time>
   <energy>
    <i name="e_fr_energy">  -1018.31903129 </i>
    <i name="e_wo_entrp">  -1018.30612224 </i>
    <i name="e_0_energy">  -1018.31257676 </i>
   </energy>
  </scstep>
  <scstep>
   <time name="diag">    5.35    5.38</time>
   <time name="diis">   46.66   47.35</time>
   <time name="orth">    0.56    0.56</time>
   <time name="total">   55.56   56.31</time>
   <energy>
    <i name="e_fr_energy">   -753.20800271 </i>
    <i name="e_wo_entrp">   -753.19806883 </i>
    <i name="e_0_energy">   -753.20303577 </i>
   </energy>
  </scstep>
  <scstep>
   <time name="diag">    5.25    5.28</time>
   <time name="diis">   42.04   42.32</time>
   <time name="orth">    0.53    0.53</time>
   <time name="total">   50.99   51.31</time>
   <energy>
    <i name="e_fr_energy">   -749.27264260 </i>
    <i name="e_wo_entrp">   -749.26351825 </i>
    <i name="e_0_energy">   -749.26808043 </i>
   </energy>
  </scstep>
  <scstep>
   <time name="diag">    5.10    5.13</time>
   <time name="diis">   43.14   43.43</time>
   <time name="orth">    0.59    0.59</time>
   <time name="total">   52.07   52.41</time>
   <energy>
    <i name="e_fr_energy">   -760.76377073 </i>
    <i name="e_wo_entrp">   -760.75356858 </i>
    <i name="e_0_energy">   -760.75866966 </i>
   </energy>
  </scstep>
  <scstep>
   <time name="diag">    5.12    5.52</time>
   <time name="diis">   40.26   40.53</time>
   <time name="orth">    0.61    0.61</time>
   <time name="total">   49.38   50.08</time>
   <energy>
    <i name="e_fr_energy">   -781.52721128 </i>
    <i name="e_wo_entrp">   -781.51515871 </i>
    <i name="e_0_energy">   -781.52118500 </i>
   </energy>
  </scstep>
  <scstep>
   <time name="diag">    5.00    5.02</time>
   <time name="diis">   40.41   40.67</time>
   <time name="orth">    0.59    0.59</time>
   <time name="total">   49.43   49.74</time>
   <energy>
    <i name="e_fr_energy">   -793.95934927 </i>
    <i name="e_wo_entrp">   -793.94464766 </i>
    <i name="e_0_energy">   -793.95199847 </i>
   </energy>
  </scstep>
  <scstep>
   <time name="diag">    5.08    5.11</time>
   <time name="diis">   41.04   41.77</time>
   <time name="orth">    0.64    0.64</time>
   <time name="total">   50.22   51.01</time>
   <energy>
    <i name="e_fr_energy">   -803.99707201 </i>
    <i name="e_wo_entrp">   -803.98183086 </i>
    <i name="e_0_energy">   -803.98945144 </i>
   </energy>
  </scstep>
  <scstep>
   <time name="diag">    5.03    5.06</time>
   <time name="diis">   42.29   42.57</time>
   <time name="orth">    0.62    0.62</time>
   <time name="total">   51.40   51.74</time>
   <energy>
    <i name="e_fr_energy">   -811.94550486 </i>
    <i name="e_wo_entrp">   -811.93060288 </i>
    <i name="e_0_energy">   -811.93805387 </i>
   </energy>
  </scstep>
  <scstep>
   <time name="diag">    5.09    5.12</time>
   <time name="diis">   41.03   41.32</time>
   <time name="orth">    0.67    0.67</time>
   <time name="total">   50.26   50.60</time>
   <energy>
    <i name="e_fr_energy">   -812.52357664 </i>
    <i name="e_wo_entrp">   -812.50841098 </i>
    <i name="e_0_energy">   -812.51599381 </i>
   </energy>
  </scstep>
  <scstep>
   <time name="diag">    5.09    5.12</time>
   <time name="diis">   41.33   41.63</time>
   <time name="orth">    0.58    0.58</time>
   <time name="total">   50.43   50.79</time>
   <energy>
    <i name="e_fr_energy">   -812.60757543 </i>
    <i name="e_wo_entrp">   -812.59158338 </i>
    <i name="e_0_energy">   -812.59957940 </i>
   </energy>
  </scstep>
  <scstep>
   <time name="diag">    5.15    5.18</time>
   <time name="diis">   43.40   43.68</time>
   <time name="orth">    0.59    0.59</time>
   <time name="total">   52.62   52.96</time>
   <energy>
    <i name="e_fr_energy">   -812.61879375 </i>
    <i name="e_wo_entrp">   -812.60155135 </i>
    <i name="e_0_energy">   -812.61017255 </i>
   </energy>
  </scstep>
  <scstep>
   <time name="diag">    5.12    5.15</time>
   <time name="diis">   43.04   43.32</time>
   <time name="orth">    0.59    0.59</time>
   <time name="total">   52.25   52.59</time>
   <energy>
    <i name="e_fr_energy">   -812.61558270 </i>
    <i name="e_wo_entrp">   -812.59776671 </i>
    <i name="e_0_energy">   -812.60667471 </i>
   </energy>
  </scstep>
  <scstep>
   <time name="diag">    5.07    5.10</time>
   <time name="diis">   45.84   46.15</time>
   <time name="orth">    0.53    0.54</time>
   <time name="total">   54.93   55.29</time>
   <energy>
    <i name="e_fr_energy">   -812.61481770 </i>
    <i name="e_wo_entrp">   -812.59686662 </i>
    <i name="e_0_energy">   -812.60584216 </i>
   </energy>
  </scstep>
  <scstep>
   <time name="diag">    5.12    5.15</time>
   <time name="diis">   43.06   43.35</time>
   <time name="orth">    0.53    0.53</time>
   <time name="total">   52.23   52.57</time>
   <energy>
    <i name="e_fr_energy">   -812.61491608 </i>
    <i name="e_wo_entrp">   -812.59675414 </i>
    <i name="e_0_energy">   -812.60583511 </i>
   </energy>
  </scstep>
  <scstep>
   <time name="diag">    5.11    5.14</time>
   <time name="diis">   43.83   44.12</time>
   <time name="orth">    0.52    0.52</time>
   <time name="total">   52.91   53.25</time>
   <energy>
    <i name="e_fr_energy">   -812.61507720 </i>
    <i name="e_wo_entrp">   -812.59679002 </i>
    <i name="e_0_energy">   -812.60593361 </i>
   </energy>
  </scstep>
  <scstep>
   <time name="diag">    5.09    5.12</time>
   <time name="diis">   43.66   43.92</time>
   <time name="orth">    0.52    0.53</time>
   <time name="total">   52.77   53.07</time>
   <energy>
    <i name="e_fr_energy">   -812.61515702 </i>
    <i name="e_wo_entrp">   -812.59680767 </i>
    <i name="e_0_energy">   -812.60598235 </i>
   </energy>
  </scstep>
  <scstep>
   <time name="diag">    5.03    5.05</time>
   <time name="diis">   39.52   39.76</time>
   <time name="orth">    0.52    0.52</time>
   <time name="total">   48.41   48.69</time>
   <energy>
    <i name="e_fr_energy">   -812.61518970 </i>
    <i name="e_wo_entrp">   -812.59678733 </i>
    <i name="e_0_energy">   -812.60598852 </i>
   </energy>
  </scstep>
  <scstep>
   <time name="diag">    5.03    5.06</time>
   <time name="diis">   38.15   38.38</time>
   <time name="orth">    0.54    0.55</time>
   <time name="total">   46.95   47.22</time>
   <energy>
    <i name="e_fr_energy">   -812.61519828 </i>
    <i name="e_wo_entrp">   -812.59679111 </i>
    <i name="e_0_energy">   -812.60599470 </i>
   </energy>
  </scstep>
  <scstep>
   <time name="diag">    5.02    5.04</time>
   <time name="diis">   40.84   41.08</time>
   <time name="orth">    0.59    0.59</time>
   <time name="total">   49.50   49.79</time>
   <energy>
    <i name="e_fr_energy">   -812.61519668 </i>
    <i name="e_wo_entrp">   -812.59677924 </i>
    <i name="e_0_energy">   -812.60598796 </i>
   </energy>
  </scstep>
  <scstep>
   <time name="diag">    4.93    4.95</time>
   <time name="diis">   39.67   39.91</time>
   <time name="orth">    0.55    0.55</time>
   <time name="total">   47.98   48.26</time>
   <energy>
    <i name="e_fr_energy">   -812.61520157 </i>
    <i name="e_wo_entrp">   -812.59678264 </i>
    <i name="e_0_energy">   -812.60599211 </i>
   </energy>
  </scstep>
  <scstep>
   <time name="diag">    5.05    5.07</time>
   <time name="diis">   35.00   35.21</time>
   <time name="orth">    0.42    0.42</time>
   <time name="total">   43.25   43.50</time>
   <energy>
    <i name="e_fr_energy">   -812.61520228 </i>
    <i name="e_wo_entrp">   -812.59678015 </i>
    <i name="e_0_energy">   -812.60599121 </i>
   </energy>
  </scstep>
  <scstep>
   <time name="diag">    4.75    4.77</time>
   <time name="diis">   28.56   28.72</time>
   <time name="orth">    0.40    0.41</time>
   <time name="total">   34.76   34.96</time>
   <energy>
    <i name="alphaZ">   3514.54571391 </i>
    <i name="ewald"> -36983.19415709 </i>
    <i name="hartreedc"> -18355.33868909 </i>
    <i name="XCdc">   2568.81637558 </i>
    <i name="pawpsdc">  39657.38185615 </i>
    <i name="pawaedc"> -39539.54197813 </i>
    <i name="eentropy">     -0.01842148 </i>
    <i name="bandstr">  -8023.65452647 </i>
    <i name="atom">  56348.38862387 </i>
    <i name="e_fr_energy">   -812.61520276 </i>
    <i name="e_wo_entrp">   -812.59678127 </i>
    <i name="e_0_energy">   -812.60599202 </i>
   </energy>
  </scstep>
  <structure>
   <crystal>
    <varray name="basis" >
     <v>      22.78514290       0.00000000       0.00000000 </v>
     <v>       0.00000000       3.87685037       0.00000000 </v>
     <v>      -9.97305163       0.00000241      15.12824818 </v>
    </varray>
    <i name="volume">   1336.34759474 </i>
    <varray name="rec_basis" >
     <v>       0.04388825       0.00000000       0.02893261 </v>
     <v>       0.00000000       0.25794135      -0.00000004 </v>
     <v>       0.00000000       0.00000000       0.06610151 </v>
    </varray>
   </crystal>
   <varray name="positions" >
    <v>       0.33519706       0.75159832       0.62301805 </v>
    <v>       0.36709755       0.00764276       0.04592853 </v>
    <v>       0.63430296       0.00792378       0.95457887 </v>
    <v>       0.86548396       0.50787242       0.04496990 </v>
    <v>       0.13140453       0.50938702       0.95508275 </v>
    <v>       0.24874161       0.00357582       0.13728259 </v>
    <v>       0.75226316       0.00318156       0.86161965 </v>
    <v>       0.74792620       0.50315831       0.13800971 </v>
    <v>       0.24965426       0.50340975       0.86468412 </v>
    <v>       0.12940177       0.99718637       0.22970714 </v>
    <v>       0.86897915       0.99863155       0.76713987 </v>
    <v>       0.63145681       0.49854926       0.23289476 </v>
    <v>       0.37092423       0.49588623       0.77472067 </v>
    <v>       0.41895160       0.96662799       0.37957315 </v>
    <v>       0.58405750       0.96716835       0.61753394 </v>
    <v>       0.91759573       0.46707248       0.38161805 </v>
    <v>       0.08217774       0.46695691       0.62024265 </v>
    <v>       0.29623593       0.00331096       0.46671196 </v>
    <v>       0.70237930       0.00351981       0.52610110 </v>
    <v>       0.79857846       0.50366122       0.47290779 </v>
    <v>       0.19871670       0.50292793       0.52448216 </v>
    <v>       0.46744702       0.00129112       0.71425678 </v>
    <v>       0.53664930       0.00181526       0.28694739 </v>
    <v>       0.96352901       0.50165278       0.71222337 </v>
    <v>       0.03354410       0.50133958       0.28475666 </v>
    <v>       0.99924556       0.25203872       0.00004278 </v>
    <v>       0.50072342       0.75296838       0.00082229 </v>
    <v>       0.00038246       0.49098684       0.50039189 </v>
    <v>       0.50067289       0.99110649       0.49926448 </v>
    <v>       0.14859951       0.00446882       0.99128550 </v>
    <v>       0.85001589       0.00401260       0.00873860 </v>
    <v>       0.64914364       0.50435522       0.99051652 </v>
    <v>       0.35084927       0.50402497       0.00924145 </v>
    <v>       0.30326227       0.00301732       0.08160476 </v>
    <v>       0.69627366       0.00380045       0.91760141 </v>
    <v>       0.80293546       0.50333218       0.08149189 </v>
    <v>       0.19634248       0.50204979       0.91998424 </v>
    <v>       0.03365974       0.99905121       0.09872010 </v>
    <v>       0.96559508       0.00008287       0.90221785 </v>
    <v>       0.53439754       0.50164830       0.09862637 </v>
    <v>       0.46643800       0.50006372       0.90129641 </v>
    <v>       0.44971163       0.00391678       0.15566655 </v>
    <v>       0.55002066       0.00317395       0.84389549 </v>
    <v>       0.94917190       0.50343132       0.15550578 </v>
    <v>       0.05009672       0.50512305       0.84455814 </v>
    <v>       0.17976407       0.00182516       0.17756659 </v>
    <v>       0.82008620       0.00315529       0.82264932 </v>
    <v>       0.67986156       0.50296975       0.17707679 </v>
    <v>       0.31915118       0.50022563       0.82368494 </v>
    <v>       0.04893248       0.00120336       0.27039079 </v>
    <v>       0.95045371       0.00184393       0.73015947 </v>
    <v>       0.54986205       0.50173426       0.26967048 </v>
    <v>       0.45039628       0.50119002       0.72752072 </v>
    <v>       0.32541534       0.99959243       0.24979988 </v>
    <v>       0.67463996       0.99938238       0.74986330 </v>
    <v>       0.82538396       0.49920478       0.24974466 </v>
    <v>       0.17416780       0.49982654       0.75124605 </v>
    <v>       0.47630969       0.99857439       0.32599788 </v>
    <v>       0.52343329       0.99946822       0.67124890 </v>
    <v>       0.97625786       0.49937364       0.32696135 </v>
    <v>       0.02400020       0.49834597       0.67357637 </v>
    <v>       0.20650488       0.00176811       0.34880640 </v>
    <v>       0.79290472       0.00192848       0.65108030 </v>
    <v>       0.70759775       0.50214994       0.34899912 </v>
    <v>       0.29678029       0.50173023       0.65253455 </v>
    <v>       0.35358421       0.00065732       0.42546180 </v>
    <v>       0.64815714       0.99929490       0.57426386 </v>
    <v>       0.85283423       0.50023087       0.42551969 </v>
    <v>       0.14837346       0.50001503       0.57614407 </v>
    <v>       0.22262621       0.00255877       0.52214312 </v>
    <v>       0.77877845       0.00307603       0.48114250 </v>
    <v>       0.72193438       0.50293739       0.51849495 </v>
    <v>       0.28004245       0.50274406       0.48151630 </v>
    <v>       0.37600973       0.00215709       0.59712403 </v>
    <v>       0.62184562       0.00261839       0.40388880 </v>
    <v>       0.87843950       0.50277443       0.59595646 </v>
    <v>       0.12185548       0.50222928       0.40422815 </v>
    <v>       0.09106567       0.99264546       0.63110069 </v>
    <v>       0.91004325       0.99290314       0.36883319 </v>
    <v>       0.59002099       0.49278942       0.63104070 </v>
    <v>       0.40958864       0.49249628       0.36897027 </v>
    <v>       0.39280290       0.99986399       0.76869931 </v>
    <v>       0.60588603       0.00115926       0.23183610 </v>
    <v>       0.89450516       0.50102829       0.76825179 </v>
    <v>       0.10574597       0.50025557       0.23187982 </v>
    <v>       0.27537006       0.00304055       0.89707438 </v>
    <v>       0.72399487       0.00362798       0.10270442 </v>
    <v>       0.77544270       0.50362983       0.89658537 </v>
    <v>       0.22422507       0.50363290       0.10407936 </v>
    <v>       0.42930699       0.00431607       0.98730096 </v>
    <v>       0.57145201       0.00471050       0.01335586 </v>
    <v>       0.92801315       0.50272005       0.98686249 </v>
    <v>       0.07091891       0.50389415       0.01349951 </v>
   </varray>
  </structure>
  <varray name="forces" >
   <v>      -0.11104526       0.01580526      -0.35804946 </v>
   <v>      -0.00226473       0.00132015      -0.00477539 </v>
   <v>      -0.01538824      -0.00057877      -0.02940014 </v>
   <v>       0.01393499       0.00185080       0.02551068 </v>
   <v>       0.00344551       0.00152786      -0.00281974 </v>
   <v>      -0.00593670       0.00098985       0.00722893 </v>
   <v>      -0.00487862       0.00054300      -0.00703042 </v>
   <v>      -0.00470766      -0.00023099      -0.00308124 </v>
   <v>       0.00612942      -0.00154434      -0.02210121 </v>
   <v>       0.01166299       0.00209010       0.03196674 </v>
   <v>       0.00234145       0.00181123      -0.00285188 </v>
   <v>      -0.00073449       0.00210026       0.00257197 </v>
   <v>      -0.36045211      -0.40120838       0.41340214 </v>
   <v>      -0.00835966      -0.00745957       0.01979906 </v>
   <v>      -0.03019881      -0.00648829      -0.00695478 </v>
   <v>      -0.00249182      -0.00339917       0.01414668 </v>
   <v>       0.03703355      -0.01038779       0.00950772 </v>
   <v>       0.29709125       0.34003700      -0.41258264 </v>
   <v>      -0.00154294      -0.00114924       0.00279691 </v>
   <v>       0.00137735      -0.00022314       0.00551897 </v>
   <v>      -0.37402500      -0.23242505      -0.11819256 </v>
   <v>       0.40651927       0.27905965       0.04838742 </v>
   <v>       0.00000887       0.00091236       0.00238153 </v>
   <v>       0.00708978       0.00095974      -0.00212454 </v>
   <v>       0.01405358       0.00157795       0.02381179 </v>
   <v>       0.00012725      -0.00191060       0.00891139 </v>
   <v>      -0.00055352       0.00321244      -0.01320355 </v>
   <v>      -0.00570822      -0.00324466      -0.01607906 </v>
   <v>       0.00779883      -0.00243035      -0.00619234 </v>
   <v>      -0.00447394       0.00090318       0.00338383 </v>
   <v>      -0.00439935       0.00035007      -0.00498747 </v>
   <v>       0.00126169       0.00181313       0.00501687 </v>
   <v>      -0.00019216       0.00108721       0.00535972 </v>
   <v>      -0.00110821       0.00113559       0.00407396 </v>
   <v>       0.00345687       0.00151154       0.00155670 </v>
   <v>       0.00103974       0.00143991      -0.00442813 </v>
   <v>      -0.01535694       0.00159805       0.00853414 </v>
   <v>      -0.00397882       0.00216617      -0.00005401 </v>
   <v>      -0.00229084      -0.00023260       0.00183377 </v>
   <v>       0.00098736       0.00013797       0.00031654 </v>
   <v>      -0.00757631      -0.00988590      -0.00849168 </v>
   <v>       0.00354868       0.00087792       0.00089651 </v>
   <v>       0.00735434       0.01212431       0.01075792 </v>
   <v>      -0.00118868       0.00113077       0.00159697 </v>
   <v>      -0.00390619       0.00145271       0.00455235 </v>
   <v>       0.00548122       0.00057772      -0.00840527 </v>
   <v>      -0.00294736       0.00122480       0.00044493 </v>
   <v>       0.00830494       0.00154884      -0.00598551 </v>
   <v>       0.03459400      -0.00410315      -0.01067209 </v>
   <v>      -0.00653596       0.00114592      -0.00813898 </v>
   <v>      -0.00010862       0.00034206       0.00166636 </v>
   <v>       0.00304392       0.00104007      -0.00006241 </v>
   <v>      -0.19151631       0.20295068      -0.04091129 </v>
   <v>      -0.00524504      -0.00042600      -0.00252646 </v>
   <v>       0.00409435      -0.00112622       0.00522464 </v>
   <v>      -0.00023703      -0.00155529      -0.00156065 </v>
   <v>      -0.00903268      -0.00160028       0.00834676 </v>
   <v>       0.00560607      -0.00032702      -0.00575723 </v>
   <v>      -0.01584612       0.00103422       0.01463014 </v>
   <v>      -0.00561031      -0.00106501      -0.00128587 </v>
   <v>      -0.00629995       0.00007032       0.00475105 </v>
   <v>       0.01083339       0.01859114       0.00714395 </v>
   <v>       0.00363455       0.00029075      -0.00000942 </v>
   <v>       0.00227799       0.00057370      -0.00387660 </v>
   <v>      -2.04956845      -1.62006255       0.83997777 </v>
   <v>      -0.03073556      -0.00219546       0.00162597 </v>
   <v>       0.01072526      -0.00185665       0.00006744 </v>
   <v>       0.00601642      -0.00183811      -0.00255043 </v>
   <v>       0.00627838       0.00117573      -0.01515125 </v>
   <v>       0.26789622      -0.22825724       0.11865351 </v>
   <v>       0.00221206      -0.00136533       0.00053208 </v>
   <v>       0.00089409       0.00021133      -0.00260247 </v>
   <v>      -0.11746702       0.26268139       0.27253325 </v>
   <v>       2.08273881       1.62346673      -0.68965061 </v>
   <v>       0.00312814       0.00005465      -0.00124846 </v>
   <v>      -0.00142676       0.00072100      -0.00144260 </v>
   <v>       0.00743086      -0.01294052       0.04473597 </v>
   <v>      -0.01111538       0.00402782       0.00206507 </v>
   <v>       0.00159644      -0.00154710      -0.00342381 </v>
   <v>       0.00909554       0.00145069      -0.00258561 </v>
   <v>       0.00670343       0.00233261      -0.00801737 </v>
   <v>       0.13460610      -0.25094375      -0.15768021 </v>
   <v>       0.00093067       0.00037624      -0.00002459 </v>
   <v>      -0.00166065       0.00061691       0.00079615 </v>
   <v>      -0.00225064      -0.00200612      -0.00594869 </v>
   <v>      -0.00620993       0.00004346       0.01264963 </v>
   <v>       0.00068374       0.00152998       0.00073954 </v>
   <v>       0.00193967       0.00112743       0.00261952 </v>
   <v>      -0.00026700       0.00135767       0.00031178 </v>
   <v>      -0.00208615      -0.00021020       0.00070771 </v>
   <v>      -0.00044555       0.00178303      -0.00009144 </v>
   <v>      -0.00309737       0.00228007      -0.00317111 </v>
   <v>      -0.00454000       0.00007165       0.00213627 </v>
  </varray>
  <varray name="stress" >
   <v>      14.11217332       7.53754682      -4.08833351 </v>
   <v>       7.53755974       9.70546785      -3.35752253 </v>
   <v>      -4.08831370      -3.35751977       7.77872132 </v>
  </varray>
  <energy>
   <i name="e_fr_energy">   -812.61520276 </i>
   <i name="e_wo_entrp">   -812.59678127 </i>
   <i name="e_0_energy">   -812.60599202 </i>
  </energy>
  <time name="totalsc"> 1471.20 1482.55</time>
 </calculation>
 <calculation>
  <scstep>
   <time name="dav">   49.59   49.91</time>
   <time name="total">   52.85   53.19</time>
   <energy>
    <i name="alphaZ">   3514.54571391 </i>
    <i name="ewald"> -37006.10330203 </i>
    <i name="hartreedc"> -18333.43198153 </i>
    <i name="XCdc">   2568.72536987 </i>
    <i name="pawpsdc">  39657.37477837 </i>
    <i name="pawaedc"> -39539.53453484 </i>
    <i name="eentropy">     -0.01885078 </i>
    <i name="bandstr">  -8022.74137611 </i>
    <i name="atom">  56348.38862387 </i>
    <i name="e_fr_energy">   -812.79555925 </i>
    <i name="e_wo_entrp">   -812.77670847 </i>
    <i name="e_0_energy">   -812.78613386 </i>
   </energy>
  </scstep>
  <scstep>
   <time name="diag">    4.93    4.95</time>
   <time name="diis">   46.36   46.69</time>
   <time name="orth">    0.59    0.59</time>
   <time name="total">   54.95   55.33</time>
   <energy>
    <i name="e_fr_energy">   -812.86413955 </i>
    <i name="e_wo_entrp">   -812.84496070 </i>
    <i name="e_0_energy">   -812.85455012 </i>
   </energy>
  </scstep>
  <scstep>
   <time name="diag">    4.70    4.73</time>
   <time name="diis">   47.18   47.50</time>
   <time name="orth">    0.60    0.61</time>
   <time name="total">   55.65   56.02</time>
   <energy>
    <i name="e_fr_energy">   -812.87752853 </i>
    <i name="e_wo_entrp">   -812.85849934 </i>
    <i name="e_0_energy">   -812.86801394 </i>
   </energy>
  </scstep>
  <scstep>
   <time name="diag">    4.99    5.01</time>
   <time name="diis">   50.10   50.45</time>
   <time name="orth">    0.61    0.61</time>
   <time name="total">   58.82   59.21</time>
   <energy>
    <i name="e_fr_energy">   -812.87850013 </i>
    <i name="e_wo_entrp">   -812.85932915 </i>
    <i name="e_0_energy">   -812.86891464 </i>
   </energy>
  </scstep>
  <scstep>
   <time name="diag">    4.98    5.00</time>
   <time name="diis">   48.97   49.31</time>
   <time name="orth">    0.65    0.65</time>
   <time name="total">   57.95   58.33</time>
   <energy>
    <i name="e_fr_energy">   -812.87770272 </i>
    <i name="e_wo_entrp">   -812.85859091 </i>
    <i name="e_0_energy">   -812.86814682 </i>
   </energy>
  </scstep>
  <scstep>
   <time name="diag">    4.99    5.01</time>
   <time name="diis">   47.54   47.86</time>
   <time name="orth">    0.67    0.67</time>
   <time name="total">   55.53   55.89</time>
   <energy>
    <i name="e_fr_energy">   -812.87758676 </i>
    <i name="e_wo_entrp">   -812.85857133 </i>
    <i name="e_0_energy">   -812.86807904 </i>
   </energy>
  </scstep>
  <scstep>
   <time name="diag">    5.08    5.11</time>
   <time name="diis">   47.88   48.19</time>
   <time name="orth">    0.59    0.59</time>
   <time name="total">   56.04   56.39</time>
   <energy>
    <i name="e_fr_energy">   -812.87758411 </i>
    <i name="e_wo_entrp">   -812.85851587 </i>
    <i name="e_0_energy">   -812.86804999 </i>
   </energy>
  </scstep>
  <scstep>
   <time name="diag">    5.08    5.11</time>
   <time name="diis">   45.95   46.24</time>
   <time name="orth">    0.59    0.60</time>
   <time name="total">   54.37   54.70</time>
   <energy>
    <i name="e_fr_energy">   -812.87758928 </i>
    <i name="e_wo_entrp">   -812.85853249 </i>
    <i name="e_0_energy">   -812.86806088 </i>
   </energy>
  </scstep>
  <scstep>
   <time name="diag">    5.12    5.14</time>
   <time name="diis">   43.35   43.61</time>
   <time name="orth">    0.53    0.53</time>
   <time name="total">   51.85   52.14</time>
   <energy>
    <i name="e_fr_energy">   -812.87760172 </i>
    <i name="e_wo_entrp">   -812.85853678 </i>
    <i name="e_0_energy">   -812.86806925 </i>
   </energy>
  </scstep>
  <scstep>
   <time name="diag">    5.03    5.06</time>
   <time name="diis">   38.07   38.31</time>
   <time name="orth">    0.57    0.57</time>
   <time name="total">   46.80   47.08</time>
   <energy>
    <i name="e_fr_energy">   -812.87760314 </i>
    <i name="e_wo_entrp">   -812.85854229 </i>
    <i name="e_0_energy">   -812.86807272 </i>
   </energy>
  </scstep>
  <scstep>
   <time name="diag">    5.33    5.38</time>
   <time name="diis">   33.46   33.66</time>
   <time name="orth">    0.51    0.51</time>
   <time name="total">   42.50   42.76</time>
   <energy>
    <i name="e_fr_energy">   -812.87760454 </i>
    <i name="e_wo_entrp">   -812.85854409 </i>
    <i name="e_0_energy">   -812.86807431 </i>
   </energy>
  </scstep>
  <scstep>
   <time name="diag">    4.62    4.65</time>
   <time name="diis">   21.59   21.70</time>
   <time name="orth">    0.40    0.40</time>
   <time name="total">   27.91   28.05</time>
   <energy>
    <i name="alphaZ">   3514.54571391 </i>
    <i name="ewald"> -37006.10330203 </i>
    <i name="hartreedc"> -18333.87961373 </i>
    <i name="XCdc">   2568.75236412 </i>
    <i name="pawpsdc">  39658.61229362 </i>
    <i name="pawaedc"> -39540.68745538 </i>
    <i name="eentropy">     -0.01906031 </i>
    <i name="bandstr">  -8022.48716935 </i>
    <i name="atom">  56348.38862387 </i>
    <i name="e_fr_energy">   -812.87760527 </i>
    <i name="e_wo_entrp">   -812.85854496 </i>
    <i name="e_0_energy">   -812.86807512 </i>
   </energy>
  </scstep>
  <structure>
   <crystal>
    <varray name="basis" >
     <v>      22.78514290       0.00000000       0.00000000 </v>
     <v>       0.00000000       3.87685037       0.00000000 </v>
     <v>      -9.97305163       0.00000241      15.12824818 </v>
    </varray>
    <i name="volume">   1336.34759474 </i>
    <varray name="rec_basis" >
     <v>       0.04388825       0.00000000       0.02893261 </v>
     <v>       0.00000000       0.25794135      -0.00000004 </v>
     <v>       0.00000000       0.00000000       0.06610151 </v>
    </varray>
   </crystal>
   <varray name="positions" >
    <v>       0.33490510       0.75165690       0.62255997 </v>
    <v>       0.36709298       0.00764936       0.04592239 </v>
    <v>       0.63427357       0.00792093       0.95454144 </v>
    <v>       0.86551012       0.50788165       0.04500258 </v>
    <v>       0.13140587       0.50939461       0.95507913 </v>
    <v>       0.24874063       0.00358073       0.13729177 </v>
    <v>       0.75225515       0.00318426       0.86161073 </v>
    <v>       0.74792054       0.50315717       0.13800581 </v>
    <v>       0.24964710       0.50340207       0.86465591 </v>
    <v>       0.12942941       0.99719673       0.22974775 </v>
    <v>       0.86897953       0.99864058       0.76713621 </v>
    <v>       0.63145761       0.49855973       0.23289798 </v>
    <v>       0.37084967       0.49388917       0.77524783 </v>
    <v>       0.41895559       0.96659086       0.37959842 </v>
    <v>       0.58402807       0.96713604       0.61752511 </v>
    <v>       0.91760156       0.46705553       0.38163610 </v>
    <v>       0.08221439       0.46690513       0.62025481 </v>
    <v>       0.29625704       0.00500350       0.46618546 </v>
    <v>       0.70237955       0.00351409       0.52610464 </v>
    <v>       0.79858268       0.50366011       0.47291477 </v>
    <v>       0.19833412       0.50177106       0.52433169 </v>
    <v>       0.46781842       0.00268018       0.71431863 </v>
    <v>       0.53665063       0.00181982       0.28695041 </v>
    <v>       0.96353379       0.50165756       0.71222063 </v>
    <v>       0.03356950       0.50134742       0.28478731 </v>
    <v>       0.99925062       0.25202925       0.00005410 </v>
    <v>       0.50071555       0.75298437       0.00080537 </v>
    <v>       0.00036868       0.49097071       0.50037140 </v>
    <v>       0.50067601       0.99109436       0.49925664 </v>
    <v>       0.14859759       0.00447332       0.99128979 </v>
    <v>       0.85000943       0.00401436       0.00873232 </v>
    <v>       0.64914753       0.50436424       0.99052294 </v>
    <v>       0.35085209       0.50403038       0.00924823 </v>
    <v>       0.30326359       0.00302295       0.08160989 </v>
    <v>       0.69627747       0.00380797       0.91760343 </v>
    <v>       0.80293390       0.50333936       0.08148630 </v>
    <v>       0.19633425       0.50205776       0.91999515 </v>
    <v>       0.03365630       0.99906195       0.09872000 </v>
    <v>       0.96559417       0.00008176       0.90222016 </v>
    <v>       0.53439855       0.50164899       0.09862672 </v>
    <v>       0.46642679       0.50001446       0.90128554 </v>
    <v>       0.44971513       0.00392118       0.15566767 </v>
    <v>       0.55003292       0.00323433       0.84390923 </v>
    <v>       0.94917185       0.50343697       0.15550791 </v>
    <v>       0.05009595       0.50513027       0.84456393 </v>
    <v>       0.17976399       0.00182800       0.17755581 </v>
    <v>       0.82008399       0.00316140       0.82264992 </v>
    <v>       0.67986526       0.50297747       0.17706915 </v>
    <v>       0.31917436       0.50020517       0.82367108 </v>
    <v>       0.04892245       0.00120905       0.27038045 </v>
    <v>       0.95045453       0.00184564       0.73016159 </v>
    <v>       0.54986458       0.50173945       0.26967037 </v>
    <v>       0.45021114       0.50220025       0.72746830 </v>
    <v>       0.32540950       0.99959029       0.24979662 </v>
    <v>       0.67464640       0.99937675       0.74987000 </v>
    <v>       0.82538290       0.49919703       0.24974271 </v>
    <v>       0.17416473       0.49981858       0.75125671 </v>
    <v>       0.47631124       0.99857278       0.32599054 </v>
    <v>       0.52342818       0.99947337       0.67126773 </v>
    <v>       0.97625243       0.49936832       0.32695977 </v>
    <v>       0.02399749       0.49834628       0.67358241 </v>
    <v>       0.20651801       0.00186066       0.34881543 </v>
    <v>       0.79290778       0.00192993       0.65108028 </v>
    <v>       0.70759750       0.50215281       0.34899415 </v>
    <v>       0.29551355       0.49366639       0.65360581 </v>
    <v>       0.35355897       0.00064638       0.42546367 </v>
    <v>       0.64816625       0.99928567       0.57426392 </v>
    <v>       0.85283792       0.50022172       0.42551645 </v>
    <v>       0.14837042       0.50002090       0.57612491 </v>
    <v>       0.22291928       0.00142264       0.52229428 </v>
    <v>       0.77878062       0.00306924       0.48114317 </v>
    <v>       0.72193368       0.50293845       0.51849162 </v>
    <v>       0.28009528       0.50405158       0.48186402 </v>
    <v>       0.37738874       0.01023794       0.59624422 </v>
    <v>       0.62184758       0.00261868       0.40388718 </v>
    <v>       0.87843747       0.50277802       0.59595461 </v>
    <v>       0.12188681       0.50216488       0.40428531 </v>
    <v>       0.09105741       0.99266547       0.63110330 </v>
    <v>       0.91004270       0.99289543       0.36882885 </v>
    <v>       0.59002727       0.49279662       0.63103741 </v>
    <v>       0.40958988       0.49250788       0.36896003 </v>
    <v>       0.39282904       0.99861494       0.76849832 </v>
    <v>       0.60588680       0.00116115       0.23183604 </v>
    <v>       0.89450419       0.50103137       0.76825280 </v>
    <v>       0.10574075       0.50024556       0.23187219 </v>
    <v>       0.27537186       0.00304077       0.89709048 </v>
    <v>       0.72399587       0.00363560       0.10270537 </v>
    <v>       0.77544582       0.50363544       0.89658874 </v>
    <v>       0.22422502       0.50363964       0.10407974 </v>
    <v>       0.42930558       0.00431501       0.98730182 </v>
    <v>       0.57145156       0.00471931       0.01335568 </v>
    <v>       0.92800874       0.50273145       0.98685841 </v>
    <v>       0.07091624       0.50389453       0.01350223 </v>
   </varray>
  </structure>
  <varray name="forces" >
   <v>      -0.11475840      -0.00140071      -0.28954047 </v>
   <v>      -0.00108249       0.00060904       0.00874418 </v>
   <v>       0.00198957      -0.00028003      -0.00481920 </v>
   <v>      -0.00406692       0.00157482       0.00228575 </v>
   <v>      -0.00578933       0.00102514       0.00200639 </v>
   <v>       0.00446881       0.00083291      -0.01132943 </v>
   <v>      -0.00176260       0.00037821       0.00615153 </v>
   <v>      -0.00017212      -0.00015465      -0.00425227 </v>
   <v>      -0.01709022      -0.00050434       0.01181124 </v>
   <v>      -0.00018886       0.00288692      -0.03543036 </v>
   <v>      -0.00419984       0.00156611       0.00247058 </v>
   <v>       0.00550195       0.00217328      -0.00243895 </v>
   <v>      -0.05555108      -0.36055135       0.09444322 </v>
   <v>       0.04256887      -0.00504281      -0.00307328 </v>
   <v>      -0.00658126      -0.00568223       0.00527281 </v>
   <v>      -0.01924920      -0.00291093       0.00158524 </v>
   <v>       0.00114084      -0.00662284       0.00189208 </v>
   <v>       0.07510619       0.32373861      -0.12637077 </v>
   <v>      -0.00330799      -0.00085602       0.00321828 </v>
   <v>       0.00210875       0.00024823       0.00290502 </v>
   <v>      -0.09380094      -0.21997567      -0.01203429 </v>
   <v>       0.07659290       0.25220477       0.02576760 </v>
   <v>       0.00549332       0.00102197       0.00053320 </v>
   <v>      -0.00164867       0.00114237       0.00200809 </v>
   <v>      -0.02495594       0.00021033      -0.01639492 </v>
   <v>      -0.00565681       0.00152767      -0.00526443 </v>
   <v>       0.01165147      -0.00582537       0.00276224 </v>
   <v>       0.00625074      -0.00336913       0.00774806 </v>
   <v>      -0.00199108      -0.00193916      -0.01552934 </v>
   <v>      -0.00426396       0.00112208       0.00334682 </v>
   <v>      -0.00063640       0.00046250       0.00038111 </v>
   <v>       0.00083560       0.00189250       0.00149631 </v>
   <v>      -0.00104337       0.00127162       0.00000241 </v>
   <v>      -0.00061821       0.00120216       0.00464683 </v>
   <v>      -0.00221980       0.00152219       0.00116446 </v>
   <v>       0.00538625       0.00147337      -0.00344040 </v>
   <v>       0.00724334       0.00135276      -0.00221172 </v>
   <v>      -0.00179146      -0.00247704       0.01444721 </v>
   <v>      -0.00203511       0.00178039       0.00589403 </v>
   <v>       0.00109922       0.00665238      -0.00934956 </v>
   <v>       0.00280752      -0.01844926       0.05570657 </v>
   <v>      -0.00024313       0.00095974      -0.00458058 </v>
   <v>       0.03280908       0.02574593       0.04930518 </v>
   <v>       0.01078701       0.00127902       0.02733452 </v>
   <v>      -0.00338599       0.00140699       0.00231987 </v>
   <v>      -0.01557466       0.00010218       0.00645985 </v>
   <v>       0.00454803       0.00119727      -0.00381831 </v>
   <v>      -0.00182895       0.00145136      -0.00118814 </v>
   <v>      -0.27122050      -0.00785048       0.19850363 </v>
   <v>      -0.00107415       0.00075831       0.00140634 </v>
   <v>       0.00164640       0.00028493       0.00075698 </v>
   <v>       0.00285438       0.00098829       0.00005917 </v>
   <v>      -0.15355940       0.24226429      -0.06435324 </v>
   <v>      -0.00505857      -0.00036943       0.01091730 </v>
   <v>      -0.00159646      -0.00119319      -0.00739446 </v>
   <v>       0.00090813      -0.00160977      -0.00031251 </v>
   <v>      -0.00599950      -0.00092138      -0.00109543 </v>
   <v>      -0.01003210      -0.00105877       0.00209481 </v>
   <v>       0.25902661       0.00158169      -0.02295257 </v>
   <v>       0.02148341      -0.00047032      -0.00537209 </v>
   <v>       0.01021437      -0.00037032      -0.00181038 </v>
   <v>       0.00480117       0.03301719      -0.03482730 </v>
   <v>       0.00356322       0.00042418      -0.00026267 </v>
   <v>       0.00325494       0.00036801      -0.00251924 </v>
   <v>      -1.29021939      -0.97469872       0.54272015 </v>
   <v>       0.19069955       0.00114676      -0.14361882 </v>
   <v>       0.00209050      -0.00198470       0.00040693 </v>
   <v>       0.00194034      -0.00181362       0.00046815 </v>
   <v>      -0.18628129      -0.00089039       0.01453910 </v>
   <v>       0.23056879      -0.24500234       0.13295279 </v>
   <v>       0.00363925      -0.00163168      -0.00059376 </v>
   <v>       0.00229388      -0.00003930      -0.00214913 </v>
   <v>      -0.07911987       0.28944068       0.26494569 </v>
   <v>       1.30806600       0.97985511      -0.47329755 </v>
   <v>       0.00131330       0.00012172      -0.00150572 </v>
   <v>       0.00030314       0.00041705      -0.00118924 </v>
   <v>      -0.03452723      -0.02652780      -0.05147542 </v>
   <v>      -0.00557569       0.00052115       0.00177874 </v>
   <v>       0.00400734      -0.00259434      -0.00269607 </v>
   <v>       0.00508009      -0.00026384      -0.00274051 </v>
   <v>      -0.00315748      -0.00138290      -0.00403060 </v>
   <v>       0.09546086      -0.29408540      -0.15817789 </v>
   <v>       0.00147313       0.00049491       0.00060747 </v>
   <v>      -0.00064879       0.00082751      -0.00000900 </v>
   <v>       0.00384724      -0.00133736       0.00183611 </v>
   <v>      -0.00335900       0.00032145       0.00160919 </v>
   <v>       0.00066552       0.00134908       0.00332618 </v>
   <v>       0.00185462       0.00134182       0.00132218 </v>
[...]
        <r>  0.0002  0.0000  0.0001  0.0005  0.0000  0.0000  0.0000  0.0000  0.0000 </r>
        <r>  0.0000  0.0001  0.0005  0.0000  0.0000  0.0000  0.0000  0.0000  0.0000 </r>
        <r>  0.0000  0.0000  0.0004  0.0000  0.0000  0.0000  0.0000  0.0000  0.0000 </r>
        <r>  0.0018  0.0001  0.0147  0.0020  0.0000  0.0000  0.0000  0.0000  0.0000 </r>
        <r>  0.0022  0.0000  0.0158  0.0041  0.0000  0.0000  0.0000  0.0000  0.0000 </r>
        <r>  0.0000  0.0001  0.0003  0.0000  0.0000  0.0000  0.0000  0.0000  0.0000 </r>
        <r>  0.0000  0.0001  0.0002  0.0000  0.0000  0.0000  0.0000  0.0000  0.0000 </r>
        <r>  0.0002  0.0000  0.0020  0.0000  0.0000  0.0000  0.0000  0.0000  0.0000 </r>
        <r>  0.0006  0.0000  0.0067  0.0006  0.0000  0.0000  0.0000  0.0000  0.0000 </r>
        <r>  0.0000  0.0001  0.0001  0.0001  0.0000  0.0000  0.0000  0.0000  0.0000 </r>
        <r>  0.0000  0.0001  0.0001  0.0001  0.0000  0.0000  0.0000  0.0000  0.0000 </r>
        <r>  0.0004  0.0000  0.0052  0.0012  0.0000  0.0000  0.0000  0.0000  0.0000 </r>
        <r>  0.0006  0.0002  0.0050  0.0027  0.0000  0.0000  0.0000  0.0000  0.0000 </r>
        <r>  0.0000  0.0006  0.0000  0.0000  0.0000  0.0000  0.0000  0.0000  0.0000 </r>
        <r>  0.0000  0.0000  0.0000  0.0000  0.0000  0.0000  0.0000  0.0000  0.0000 </r>
        <r>  0.0003  0.0004  0.0002  0.0014  0.0000  0.0000  0.0000  0.0000  0.0000 </r>
        <r>  0.0006  0.0003  0.0000  0.0015  0.0000  0.0000  0.0000  0.0000  0.0000 </r>
        <r>  0.0000  0.0000  0.0000  0.0000  0.0000  0.0000  0.0000  0.0000  0.0000 </r>
        <r>  0.0000  0.0000  0.0000  0.0000  0.0000  0.0000  0.0000  0.0000  0.0000 </r>
        <r>  0.0004  0.0000  0.0042  0.0002  0.0000  0.0000  0.0000  0.0000  0.0000 </r>
        <r>  0.0005  0.0000  0.0042  0.0004  0.0000  0.0000  0.0000  0.0000  0.0000 </r>
        <r>  0.0000  0.0000  0.0000  0.0000  0.0000  0.0000  0.0000  0.0000  0.0000 </r>
        <r>  0.0000  0.0000  0.0000  0.0000  0.0000  0.0000  0.0000  0.0000  0.0000 </r>
        <r>  0.0012  0.0003  0.0034  0.0132  0.0000  0.0000  0.0000  0.0000  0.0000 </r>
        <r>  0.0007  0.0001  0.0029  0.0162  0.0000  0.0000  0.0000  0.0000  0.0000 </r>
        <r>  0.0000  0.0001  0.0005  0.0000  0.0000  0.0000  0.0000  0.0000  0.0000 </r>
        <r>  0.0000  0.0000  0.0002  0.0000  0.0000  0.0000  0.0000  0.0000  0.0000 </r>
        <r>  0.0003  0.0000  0.0221  0.0011  0.0000  0.0000  0.0000  0.0000  0.0000 </r>
        <r>  0.0009  0.0000  0.0246  0.0008  0.0000  0.0000  0.0000  0.0000  0.0000 </r>
        <r>  0.0000  0.0000  0.0000  0.0000  0.0000  0.0000  0.0000  0.0000  0.0000 </r>
        <r>  0.0000  0.0003  0.0000  0.0000  0.0000  0.0000  0.0000  0.0000  0.0000 </r>
        <r>  0.0026  0.0003  0.0006  0.0077  0.0000  0.0000  0.0000  0.0000  0.0000 </r>
        <r>  0.0034  0.0001  0.0002  0.0050  0.0000  0.0000  0.0000  0.0000  0.0000 </r>
        <r>  0.0000  0.0090  0.0000  0.0000  0.0000  0.0000  0.0000  0.0000  0.0000 </r>
        <r>  0.0000  0.0096  0.0000  0.0000  0.0000  0.0000  0.0000  0.0000  0.0000 </r>
        <r>  0.0003  0.0000  0.0000  0.0001  0.0000  0.0000  0.0000  0.0000  0.0000 </r>
        <r>  0.0000  0.0002  0.0000  0.0000  0.0000  0.0000  0.0000  0.0000  0.0000 </r>
        <r>  0.0000  0.0003  0.0000  0.0001  0.0000  0.0000  0.0000  0.0000  0.0000 </r>
        <r>  0.0000  0.0005  0.0001  0.0000  0.0000  0.0000  0.0000  0.0000  0.0000 </r>
        <r>  0.0018  0.0000  0.0000  0.0004  0.0000  0.0000  0.0000  0.0000  0.0000 </r>
        <r>  0.0006  0.0000  0.0003  0.0002  0.0000  0.0000  0.0000  0.0000  0.0000 </r>
        <r>  0.0000  0.0005  0.0001  0.0000  0.0000  0.0000  0.0000  0.0000  0.0000 </r>
        <r>  0.0000  0.0009  0.0000  0.0000  0.0000  0.0000  0.0000  0.0000  0.0000 </r>
        <r>  0.0000  0.0000  0.0000  0.0000  0.0000  0.0000  0.0000  0.0000  0.0000 </r>
        <r>  0.0000  0.0000  0.0000  0.0000  0.0000  0.0000  0.0000  0.0000  0.0000 </r>
        <r>  0.0000  0.0181  0.0000  0.0000  0.0000  0.0000  0.0000  0.0000  0.0000 </r>
        <r>  0.0000  0.0115  0.0000  0.0000  0.0000  0.0000  0.0000  0.0000  0.0000 </r>
        <r>  0.0006  0.0001  0.0005  0.0011  0.0000  0.0000  0.0000  0.0000  0.0000 </r>
        <r>  0.0006  0.0004  0.0001  0.0008  0.0000  0.0000  0.0000  0.0000  0.0000 </r>
        <r>  0.0000  0.0020  0.0000  0.0000  0.0000  0.0000  0.0000  0.0000  0.0000 </r>
        <r>  0.0000  0.0018  0.0000  0.0000  0.0000  0.0000  0.0000  0.0000  0.0000 </r>
        <r>  0.0000  0.0000  0.0002  0.0000  0.0000  0.0000  0.0000  0.0000  0.0000 </r>
        <r>  0.0002  0.0000  0.0007  0.0000  0.0000  0.0000  0.0000  0.0000  0.0000 </r>
        <r>  0.0000  0.0000  0.0004  0.0006  0.0000  0.0000  0.0000  0.0000  0.0000 </r>
        <r>  0.0000  0.0000  0.0005  0.0005  0.0000  0.0000  0.0000  0.0000  0.0000 </r>
        <r>  0.0001  0.0000  0.0000  0.0002  0.0000  0.0000  0.0000  0.0000  0.0000 </r>
        <r>  0.0004  0.0000  0.0004  0.0005  0.0000  0.0000  0.0000  0.0000  0.0000 </r>
       </set>
       <set comment="band 462">
        <r>  0.0000  0.0007  0.0000  0.0003  0.0000  0.0000  0.0000  0.0000  0.0000 </r>
        <r>  0.0000  0.0001  0.0000  0.0015  0.0001  0.0005  0.0005  0.0019  0.0086 </r>
        <r>  0.0002  0.0002  0.0003  0.0002  0.0002  0.0002  0.0001  0.0004  0.0036 </r>
        <r>  0.0020  0.0000  0.0043  0.0044  0.0000  0.0000  0.0008  0.0049  0.0573 </r>
        <r>  0.0002  0.0000  0.0004  0.0081  0.0000  0.0000  0.0069  0.0169  0.0568 </r>
        <r>  0.0001  0.0000  0.0000  0.0004  0.0000  0.0004  0.0003  0.0040  0.0063 </r>
        <r>  0.0000  0.0000  0.0000  0.0001  0.0001  0.0007  0.0002  0.0012  0.0021 </r>
        <r>  0.0008  0.0000  0.0002  0.0008  0.0000  0.0000  0.0018  0.0199  0.0479 </r>
        <r>  0.0010  0.0001  0.0000  0.0042  0.0000  0.0002  0.0002  0.0224  0.0512 </r>
        <r>  0.0003  0.0000  0.0000  0.0005  0.0000  0.0000  0.0005  0.0000  0.0009 </r>
        <r>  0.0001  0.0000  0.0000  0.0002  0.0001  0.0000  0.0003  0.0000  0.0001 </r>
        <r>  0.0016  0.0000  0.0002  0.0032  0.0000  0.0000  0.0017  0.0011  0.0037 </r>
        <r>  0.0015  0.0001  0.0000  0.0020  0.0001  0.0000  0.0057  0.0003  0.0004 </r>
        <r>  0.0009  0.0003  0.0002  0.0002  0.0000  0.0001  0.0018  0.0000  0.0028 </r>
        <r>  0.0002  0.0002  0.0002  0.0001  0.0000  0.0000  0.0003  0.0012  0.0012 </r>
        <r>  0.0009  0.0001  0.0043  0.0004  0.0000  0.0001  0.0154  0.0069  0.0008 </r>
        <r>  0.0007  0.0003  0.0029  0.0013  0.0001  0.0002  0.0153  0.0055  0.0003 </r>
        <r>  0.0001  0.0005  0.0000  0.0000  0.0013  0.0000  0.0013  0.0008  0.0001 </r>
        <r>  0.0001  0.0000  0.0000  0.0001  0.0000  0.0000  0.0006  0.0006  0.0000 </r>
        <r>  0.0000  0.0000  0.0002  0.0001  0.0001  0.0000  0.0051  0.0032  0.0001 </r>
        <r>  0.0013  0.0001  0.0046  0.0000  0.0001  0.0000  0.0278  0.0051  0.0006 </r>
        <r>  0.0000  0.0004  0.0000  0.0003  0.0003  0.0002  0.0021  0.0009  0.0000 </r>
        <r>  0.0001  0.0001  0.0001  0.0001  0.0000  0.0000  0.0003  0.0001  0.0001 </r>
        <r>  0.0000  0.0000  0.0005  0.0003  0.0001  0.0000  0.0000  0.0003  0.0000 </r>
        <r>  0.0001  0.0000  0.0004  0.0008  0.0000  0.0000  0.0144  0.0131  0.0001 </r>
        <r>  0.0003  0.0000  0.0000  0.0024  0.0014  0.0025  0.0000  0.0000  0.0000 </r>
        <r>  0.0002  0.0000  0.0001  0.0003  0.0005  0.0001  0.0000  0.0000  0.0000 </r>
        <r>  0.0000  0.0004  0.0098  0.0019  0.0000  0.0000  0.0000  0.0000  0.0000 </r>
        <r>  0.0002  0.0027  0.0006  0.0001  0.0000  0.0000  0.0000  0.0000  0.0000 </r>
        <r>  0.0001  0.0102  0.0001  0.0001  0.0000  0.0000  0.0000  0.0000  0.0000 </r>
        <r>  0.0000  0.0154  0.0000  0.0000  0.0000  0.0000  0.0000  0.0000  0.0000 </r>
        <r>  0.0000  0.0010  0.0005  0.0001  0.0000  0.0000  0.0000  0.0000  0.0000 </r>
        <r>  0.0000  0.0020  0.0001  0.0001  0.0000  0.0000  0.0000  0.0000  0.0000 </r>
        <r>  0.0000  0.0000  0.0003  0.0040  0.0000  0.0000  0.0000  0.0000  0.0000 </r>
        <r>  0.0000  0.0004  0.0003  0.0011  0.0000  0.0000  0.0000  0.0000  0.0000 </r>
        <r>  0.0001  0.0000  0.0042  0.0191  0.0000  0.0000  0.0000  0.0000  0.0000 </r>
        <r>  0.0000  0.0004  0.0025  0.0279  0.0000  0.0000  0.0000  0.0000  0.0000 </r>
        <r>  0.0001  0.0005  0.0002  0.0003  0.0000  0.0000  0.0000  0.0000  0.0000 </r>
        <r>  0.0000  0.0001  0.0002  0.0004  0.0000  0.0000  0.0000  0.0000  0.0000 </r>
        <r>  0.0000  0.0000  0.0000  0.0000  0.0000  0.0000  0.0000  0.0000  0.0000 </r>
        <r>  0.0001  0.0000  0.0001  0.0000  0.0000  0.0000  0.0000  0.0000  0.0000 </r>
        <r>  0.0000  0.0001  0.0002  0.0003  0.0000  0.0000  0.0000  0.0000  0.0000 </r>
        <r>  0.0002  0.0014  0.0003  0.0001  0.0000  0.0000  0.0000  0.0000  0.0000 </r>
        <r>  0.0017  0.0000  0.0024  0.0007  0.0000  0.0000  0.0000  0.0000  0.0000 </r>
        <r>  0.0003  0.0003  0.0004  0.0023  0.0000  0.0000  0.0000  0.0000  0.0000 </r>
        <r>  0.0003  0.0005  0.0002  0.0010  0.0000  0.0000  0.0000  0.0000  0.0000 </r>
        <r>  0.0001  0.0001  0.0000  0.0004  0.0000  0.0000  0.0000  0.0000  0.0000 </r>
        <r>  0.0012  0.0000  0.0005  0.0078  0.0000  0.0000  0.0000  0.0000  0.0000 </r>
        <r>  0.0017  0.0005  0.0000  0.0051  0.0000  0.0000  0.0000  0.0000  0.0000 </r>
        <r>  0.0000  0.0015  0.0000  0.0000  0.0000  0.0000  0.0000  0.0000  0.0000 </r>
        <r>  0.0001  0.0000  0.0000  0.0001  0.0000  0.0000  0.0000  0.0000  0.0000 </r>
        <r>  0.0001  0.0000  0.0000  0.0004  0.0000  0.0000  0.0000  0.0000  0.0000 </r>
        <r>  0.0007  0.0002  0.0002  0.0002  0.0000  0.0000  0.0000  0.0000  0.0000 </r>
        <r>  0.0004  0.0008  0.0000  0.0001  0.0000  0.0000  0.0000  0.0000  0.0000 </r>
        <r>  0.0000  0.0003  0.0000  0.0000  0.0000  0.0000  0.0000  0.0000  0.0000 </r>
        <r>  0.0024  0.0000  0.0003  0.0001  0.0000  0.0000  0.0000  0.0000  0.0000 </r>
        <r>  0.0024  0.0016  0.0003  0.0009  0.0000  0.0000  0.0000  0.0000  0.0000 </r>
        <r>  0.0001  0.0003  0.0001  0.0003  0.0000  0.0000  0.0000  0.0000  0.0000 </r>
        <r>  0.0001  0.0034  0.0002  0.0007  0.0000  0.0000  0.0000  0.0000  0.0000 </r>
        <r>  0.0000  0.0000  0.0005  0.0016  0.0000  0.0000  0.0000  0.0000  0.0000 </r>
        <r>  0.0000  0.0007  0.0003  0.0003  0.0000  0.0000  0.0000  0.0000  0.0000 </r>
        <r>  0.0000  0.0014  0.0002  0.0001  0.0000  0.0000  0.0000  0.0000  0.0000 </r>
        <r>  0.0000  0.0001  0.0002  0.0001  0.0000  0.0000  0.0000  0.0000  0.0000 </r>
        <r>  0.0002  0.0000  0.0006  0.0010  0.0000  0.0000  0.0000  0.0000  0.0000 </r>
        <r>  0.0002  0.0007  0.0039  0.0022  0.0000  0.0000  0.0000  0.0000  0.0000 </r>
        <r>  0.0002  0.0029  0.0000  0.0000  0.0000  0.0000  0.0000  0.0000  0.0000 </r>
        <r>  0.0001  0.0009  0.0000  0.0007  0.0000  0.0000  0.0000  0.0000  0.0000 </r>
        <r>  0.0000  0.0001  0.0000  0.0013  0.0000  0.0000  0.0000  0.0000  0.0000 </r>
        <r>  0.0004  0.0008  0.0010  0.0018  0.0000  0.0000  0.0000  0.0000  0.0000 </r>
        <r>  0.0001  0.0066  0.0001  0.0001  0.0000  0.0000  0.0000  0.0000  0.0000 </r>
        <r>  0.0000  0.0003  0.0000  0.0000  0.0000  0.0000  0.0000  0.0000  0.0000 </r>
        <r>  0.0000  0.0000  0.0000  0.0004  0.0000  0.0000  0.0000  0.0000  0.0000 </r>
        <r>  0.0014  0.0001  0.0001  0.0001  0.0000  0.0000  0.0000  0.0000  0.0000 </r>
        <r>  0.0000  0.0038  0.0006  0.0004  0.0000  0.0000  0.0000  0.0000  0.0000 </r>
        <r>  0.0001  0.0001  0.0001  0.0001  0.0000  0.0000  0.0000  0.0000  0.0000 </r>
        <r>  0.0001  0.0001  0.0011  0.0000  0.0000  0.0000  0.0000  0.0000  0.0000 </r>
        <r>  0.0002  0.0001  0.0100  0.0011  0.0000  0.0000  0.0000  0.0000  0.0000 </r>
        <r>  0.0003  0.0011  0.0001  0.0000  0.0000  0.0000  0.0000  0.0000  0.0000 </r>
        <r>  0.0000  0.0017  0.0002  0.0000  0.0000  0.0000  0.0000  0.0000  0.0000 </r>
        <r>  0.0006  0.0001  0.0000  0.0001  0.0000  0.0000  0.0000  0.0000  0.0000 </r>
        <r>  0.0004  0.0009  0.0001  0.0001  0.0000  0.0000  0.0000  0.0000  0.0000 </r>
        <r>  0.0001  0.0012  0.0001  0.0000  0.0000  0.0000  0.0000  0.0000  0.0000 </r>
        <r>  0.0000  0.0023  0.0000  0.0000  0.0000  0.0000  0.0000  0.0000  0.0000 </r>
        <r>  0.0001  0.0001  0.0000  0.0000  0.0000  0.0000  0.0000  0.0000  0.0000 </r>
        <r>  0.0000  0.0006  0.0001  0.0007  0.0000  0.0000  0.0000  0.0000  0.0000 </r>
        <r>  0.0002  0.0147  0.0000  0.0001  0.0000  0.0000  0.0000  0.0000  0.0000 </r>
        <r>  0.0000  0.0113  0.0000  0.0000  0.0000  0.0000  0.0000  0.0000  0.0000 </r>
        <r>  0.0000  0.0004  0.0000  0.0001  0.0000  0.0000  0.0000  0.0000  0.0000 </r>
        <r>  0.0001  0.0014  0.0012  0.0001  0.0000  0.0000  0.0000  0.0000  0.0000 </r>
        <r>  0.0003  0.0000  0.0002  0.0012  0.0000  0.0000  0.0000  0.0000  0.0000 </r>
        <r>  0.0000  0.0003  0.0000  0.0006  0.0000  0.0000  0.0000  0.0000  0.0000 </r>
        <r>  0.0006  0.0000  0.0006  0.0071  0.0000  0.0000  0.0000  0.0000  0.0000 </r>
        <r>  0.0023  0.0003  0.0020  0.0088  0.0000  0.0000  0.0000  0.0000  0.0000 </r>
       </set>
      </set>
     </set>
    </set>
   </array>
  </projected>
 </calculation>
 <structure name="finalpos" >
  <crystal>
   <varray name="basis" >
    <v>      22.78514290       0.00000000       0.00000000 </v>
    <v>       0.00000000       3.87685037       0.00000000 </v>
    <v>      -9.97305163       0.00000241      15.12824818 </v>
   </varray>
   <i name="volume">   1336.34759474 </i>
   <varray name="rec_basis" >
    <v>       0.04388825       0.00000000       0.02893261 </v>
    <v>       0.00000000       0.25794135      -0.00000004 </v>
    <v>       0.00000000       0.00000000       0.06610151 </v>
   </varray>
  </crystal>
  <varray name="positions" >
   <v>       0.33138859       0.75119143       0.61775786 </v>
   <v>       0.36735279       0.00534203       0.04607202 </v>
   <v>       0.63372972       0.01133584       0.95405023 </v>
   <v>       0.86547086       0.50786543       0.04494370 </v>
   <v>       0.13115068       0.50880773       0.95541054 </v>
   <v>       0.24897509       0.00369418       0.13698998 </v>
   <v>       0.75214784       0.00332857       0.86182769 </v>
   <v>       0.74786492       0.50437270       0.13782800 </v>
   <v>       0.24943697       0.50174152       0.86505300 </v>
   <v>       0.12931368       0.99760579       0.22957503 </v>
   <v>       0.86890917       0.99896298       0.76750397 </v>
   <v>       0.63165494       0.49947649       0.23270131 </v>
   <v>       0.36953831       0.46865241       0.77547956 </v>
   <v>       0.41975747       0.96975214       0.37883168 </v>
   <v>       0.58413316       0.96775131       0.61747690 </v>
   <v>       0.91737162       0.46659896       0.38189395 </v>
   <v>       0.08151240       0.46397691       0.62075932 </v>
   <v>       0.29693232       0.03263372       0.46455581 </v>
   <v>       0.70273189       0.00417188       0.52636988 </v>
   <v>       0.79861725       0.50381490       0.47310573 </v>
   <v>       0.19736680       0.48601234       0.52447382 </v>
   <v>       0.46777415       0.01619766       0.71280892 </v>
   <v>       0.53753656       0.00341739       0.28686561 </v>
   <v>       0.96324446       0.50148829       0.71281035 </v>
   <v>       0.03312655       0.50168154       0.28437279 </v>
   <v>       0.99925329       0.25147393       0.00047286 </v>
   <v>       0.50047126       0.74890186       0.00014845 </v>
   <v>      -0.00088945       0.48886439       0.50106622 </v>
   <v>       0.50002548       0.99227230       0.49966839 </v>
   <v>       0.14817620       0.00366778       0.99172688 </v>
   <v>       0.85033348       0.00438309       0.00900859 </v>
   <v>       0.64904370       0.50608609       0.99016311 </v>
   <v>       0.35082339       0.50089585       0.01007769 </v>
   <v>       0.30314582       0.00057588       0.08146753 </v>
   <v>       0.69581319       0.00427852       0.91691438 </v>
   <v>       0.80303805       0.50453630       0.08129916 </v>
   <v>       0.19560798       0.49781245       0.91997503 </v>
   <v>       0.03376862       1.00052479       0.09973784 </v>
   <v>       0.96580457       0.00060152       0.90256446 </v>
   <v>       0.53432712       0.49932911       0.09814935 </v>
   <v>       0.46644442       0.49416257       0.90093678 </v>
   <v>       0.44995580       0.00312409       0.15567313 </v>
   <v>       0.54949064       0.01248095       0.84382597 </v>
   <v>       0.94938022       0.50197379       0.15586575 </v>
   <v>       0.04953211       0.50538712       0.84512792 </v>
   <v>       0.18027491       0.00033961       0.17861907 </v>
   <v>       0.82051843       0.00365422       0.82337061 </v>
   <v>       0.67984020       0.50446871       0.17658939 </v>
   <v>       0.32149340       0.48311057       0.82949077 </v>
   <v>       0.04895653       0.00040712       0.27087618 </v>
   <v>       0.95019995       0.00189862       0.73049692 </v>
   <v>       0.55030662       0.50252634       0.26924211 </v>
   <v>       0.44750063       0.51070350       0.72452760 </v>
   <v>       0.32585027       1.00116168       0.24913395 </v>
   <v>       0.67557385       0.99952705       0.74954488 </v>
   <v>       0.82538060       0.49921775       0.24947509 </v>
   <v>       0.17467487       0.49881062       0.75105181 </v>
   <v>       0.47708646       1.00291118       0.32584953 </v>
   <v>       0.52756460       1.00650835       0.67518512 </v>
   <v>       0.97711760       0.50003288       0.32812108 </v>
   <v>       0.02404825       0.49660031       0.67474604 </v>
   <v>       0.20642597       0.01380747       0.34992342 </v>
   <v>       0.79288112       0.00216493       0.65120773 </v>
   <v>       0.70764430       0.50227003       0.34869212 </v>
   <v>       0.29076737       0.47712786       0.65727362 </v>
   <v>       0.35151238       0.01728765       0.41976145 </v>
   <v>       0.64801417       1.00142190       0.57344060 </v>
   <v>       0.85239291       0.49983447       0.42499959 </v>
   <v>       0.14443940       0.49221826       0.57236625 </v>
   <v>       0.22655025      -0.00811485       0.52661495 </v>
   <v>       0.77894524       0.00325872       0.48110291 </v>
   <v>       0.72210710       0.50334884       0.51836731 </v>
   <v>       0.28338101       0.52278771       0.48729970 </v>
   <v>       0.38180675       0.02687096       0.59275016 </v>
   <v>       0.62237456       0.00280590       0.40350294 </v>
   <v>       0.87849321       0.50302451       0.59599387 </v>
   <v>       0.12287515       0.49392215       0.40420873 </v>
   <v>       0.09055097       0.98961085       0.63195687 </v>
   <v>       0.91023297       0.99240854       0.36835831 </v>
   <v>       0.59107714       0.49421306       0.63016928 </v>
   <v>       0.41073575       0.49670524       0.36802260 </v>
   <v>       0.39083710       0.98212621       0.76434141 </v>
   <v>       0.60600761       0.00156936       0.23130255 </v>
   <v>       0.89428323       0.50124889       0.76850987 </v>
   <v>       0.10625486       0.50190659       0.23238128 </v>
   <v>       0.27458465      -0.00155295       0.89782767 </v>
   <v>       0.72408402       0.00514154       0.10251316 </v>
   <v>       0.77573623       0.50391541       0.89703542 </v>
   <v>       0.22395518       0.50291961       0.10412853 </v>
   <v>       0.42890816      -0.00087739       0.98678987 </v>
   <v>       0.57123850       0.00190568       0.01301420 </v>
   <v>       0.92820715       0.50415076       0.98703319 </v>
   <v>       0.07080059       0.50444707       0.01434844 </v>
  </varray>
 </structure>
</modeling>
